
                                 *****************
                                 * O   R   C   A *
                                 *****************

                                            #,                                       
                                            ###                                      
                                            ####                                     
                                            #####                                    
                                            ######                                   
                                           ########,                                 
                                     ,,################,,,,,                         
                               ,,#################################,,                 
                          ,,##########################################,,             
                       ,#########################################, ''#####,          
                    ,#############################################,,   '####,        
                  ,##################################################,,,,####,       
                ,###########''''           ''''###############################       
              ,#####''   ,,,,##########,,,,          '''####'''          '####       
            ,##' ,,,,###########################,,,                        '##       
           ' ,,###''''                  '''############,,,                           
         ,,##''                                '''############,,,,        ,,,,,,###''
      ,#''                                            '''#######################'''  
     '                                                          ''''####''''         
             ,#######,   #######,   ,#######,      ##                                
            ,#'     '#,  ##    ##  ,#'     '#,    #''#        ,####,   ,####,        
            ##       ##  ##   ,#'  ##            #'  '#       #'       #'  '#        
            ##       ##  #######   ##           ,######,      #####,   #    #        
            '#,     ,#'  ##    ##  '#,     ,#' ,#      #,     #,   #   #,  ,#        
             '#######'   ##     ##  '#######'  #'      '#     '####' # '####'        



                #########################################################
                #                        -***-                          #
                #          Department of theory and spectroscopy        #
                #                                                       #
                #                      Frank Neese                      #
                #                                                       #
                #     Directorship, Architecture, Infrastructure        #
                #                    SHARK, DRIVERS                     #
                #        Core code/Algorithms in most modules           #
                #                                                       #
                #        Max Planck Institute fuer Kohlenforschung      #
                #                Kaiser Wilhelm Platz 1                 #
                #                 D-45470 Muelheim/Ruhr                 #
                #                      Germany                          #
                #                                                       #
                #                  All rights reserved                  #
                #                        -***-                          #
                #########################################################


                         Program Version 6.0.1  -  RELEASE   -


 With contributions from (in alphabetic order):
[Max-Planck-Institut fuer Kohlenforschung]                               
  Daniel Aravena         : Magnetic Suceptibility                        
  Michael Atanasov       : Ab Initio Ligand Field Theory (pilot matlab implementation)
  Alexander A. Auer      : GIAO ZORA, VPT2 properties, NMR spectrum      
  Ute Becker             : All parallelization in ORCA, NUMFREQ, NUMCALC 
  Giovanni Bistoni       : ED, misc. LED, open-shell LED, HFLD           
  Martin Brehm           : Molecular dynamics                            
  Dmytro Bykov           : pre 5.0 version of the SCF Hessian            
  Marcos Casanova-Páez   : Triplet and SCS-CIS(D). UHF-(DLPNO)-IP/EA/STEOM-CCSD. UHF-CVS-IP/STEOM-CCSD   
  Vijay G. Chilkuri      : MRCI spin determinant printing, contributions to CSF-ICE 
  Pauline Colinet        : FMM embedding                                 
  Dipayan Datta          : RHF DLPNO-CCSD density                        
  Achintya Kumar Dutta   : EOM-CC, STEOM-CC                              
  Nicolas Foglia         : Exact transition moments, OPA infrastructure, MCD improvements    
  Dmitry Ganyushin       : Spin-Orbit,Spin-Spin,Magnetic field MRCI      
  Miquel Garcia-Rates    : C-PCM and meta-GGA Hessian, CCSD/C-PCM, Gaussian charge scheme 
  Tiago L. C. Gouveia    : GS-ROHF, GS-ROCIS                             
  Yang Guo               : DLPNO-NEVPT2, F12-NEVPT2, CIM, IAO-localization        
  Andreas Hansen         : Spin unrestricted coupled pair/coupled cluster methods 
  Ingolf Harden          : AUTO-CI MPn and infrastructure                
  Benjamin Helmich-Paris : MC-RPA, TRAH-(SCF,CASSCF), AVAS, COSX integrals, SCF dyn. polar. 
  Lee Huntington         : MR-EOM, pCC                                   
  Robert Izsak           : Overlap fitted RIJCOSX, COSX-SCS-MP3, EOM     
  Riya Kayal             : Wick's Theorem for AUTO-CI, AUTO-CI UHF-CCSDT 
  Emily Kempfer          : AUTO-CI, RHF CISDT and CCSDT                  
  Christian Kollmar      : KDIIS, OOCD, Brueckner-CCSD(T), CCSD density, CASPT2, CASPT2-K, improved NEVPT2 
  Axel Koslowski         : Symmetry handling                             
  Simone Kossmann        : meta-GGA functionals, TD-DFT gradient, OOMP2, (MP2 Hessian; deprecated post 5.0) 
  Lucas Lang             : DCDCAS                                        
  Marvin Lechner         : AUTO-CI (C++ implementation), FIC-MRCC        
  Spencer Leger          : CASSCF response                               
  Dagmar Lenk            : GEPOL surface, SMD, ORCA-2-JSON               
  Dimitrios Liakos       : Extrapolation schemes; Compound Job, initial MDCI parallelization 
  Dimitrios Manganas     : Further ROCIS development; embedding schemes. LFT, Crystal Embedding 
  Dimitrios Pantazis     : SARC Basis sets                               
  Anastasios Papadopoulos: AUTO-CI, single reference methods and gradients 
  Taras Petrenko         : pre 6.0 DFT Hessian and TD-DFT gradient, (ASA, deprecated), ECA, 1-Electron XAS/XES, NRVS 
  Peter Pinski           : DLPNO-MP2, DLPNO-MP2 Gradient                 
  Christoph Reimann      : Effective Core Potentials                     
  Marius Retegan         : Local ZFS, SOC                                
  Christoph Riplinger    : Optimizer, TS searches, QM/MM, DLPNO-CCSD(T), (RO)-DLPNO pert. Triples 
  Michael Roemelt        : Original ROCIS implementation                 
  Masaaki Saitow         : Open-shell DLPNO-CCSD energy and density      
  Barbara Sandhoefer     : DKH picture change effects                    
  Kantharuban Sivalingam : CASSCF convergence/infrastructure, NEVPT2 and variants, FIC-MRCI 
  Bernardo de Souza      : ESD, SOC TD-DFT                               
  Georgi L. Stoychev     : AutoAux, RI-MP2 NMR, DLPNO-MP2 response, X2C  
  Van Anh Tran           : RI-MP2 g-tensors                              
  Willem Van den Heuvel  : Paramagnetic NMR                              
  Zikuan Wang            : NOTCH, Electric field optimization            
  Frank Wennmohs         : Technical directorship and infrastructure     
  Hang Xu                : AUTO-CI-Response properties                   
                                                                         
[FACCTs GmbH]                                                            
  Markus Bursch, Miquel Garcia-Rates, Christoph Riplinger, Bernardo de Souza, Georgi L. Stoychev 
                                                                 
  APM, Basis sets (HGBS, AHGBS, def-TZVP (Ac-Lr), def2-XVPD (La-Lu)), CI-OPT, improved COSX, DLPNO-Multilevel,           
  DOCKER, DRACO, updates on ESD, GOAT, IRC, LR-CPCM, MBIS, meta-GGA TD-DFT gradient, ML-optimized integration grids, 
  MM, NACMEs, nearIR, NEB, NEB-TS, NL-DFT gradient (VV10), 2- and 3-layer-ONIOM, interface openCOSMO-RS, QMMM,   
  Crystal-QMMM, SF, symmetry and pop. for TD-DFT, r2SCAN hybrids, SOLVATOR                                   
                                                                         
[Other institutions]                                                     
  V. Asgeirsson          : NEB                                           
  Christoph Bannwarth    : sTDA-DFT, sTD-DFT, PBEh-3c, B97-3c, D3        
  Sebastian Ehlert       : rSCAN, r2SCAN, r2SCAN-3c, D4, dhf basis sets  
  Marvin Friede          : D4 for Fr, Ra, Ac-Lr                          
  Lars Goerigk           : TD-DFT with DH, B97 family of functionals     
  Stefan Grimme          : VdW corrections, initial TS optimization, DFT functionals, gCP, sTDA/sTD-DF 
  Waldemar Hujo          : DFT-NL                                        
  H. Jonsson             : NEB                                           
  Holger Kruse           : gCP                                           
  Marcel Mueller         : wB97X-3c, vDZP basis set                      
  Hagen Neugebauer       : wr2SCAN                                       
  Tobias Risthaus        : range-separated hybrid DFT                    
  Lukas Wittmann         : regularized MP2, r2SCAN double-hybrids, wr2SCAN        
                                                                         
We gratefully acknowledge several colleagues who have allowed us to      
interface, adapt or use parts of their codes:                            
  Ed Valeev, F. Pavosevic, A. Kumar             : LibInt (2-el integral package), F12 methods 
  Garnet Chan, S. Sharma, J. Yang, R. Olivares  : DMRG                   
  Ulf Ekstrom                                   : XCFun DFT Library      
  Mihaly Kallay                                 : mrcc  (arbitrary order and MRCC methods)
  Frank Weinhold                                : gennbo (NPA and NBO analysis)           
  Simon Mueller                                 : openCOSMO-RS                            
  Christopher J. Cramer and Donald G. Truhlar   : smd solvation model                     
  S Lehtola, MJT Oliveira, MAL Marques          : LibXC Library                           
  Liviu Ungur et al                             : ANISO software                          


 Your calculation uses the libint2 library for the computation of 2-el integrals
 For citations please refer to: http://libint.valeyev.net

 Your ORCA version has been built with support for libXC version: 6.2.2
 For citations please refer to: https://libxc.gitlab.io

 This ORCA versions uses:
   CBLAS   interface :  Fast vector & matrix operations
   LAPACKE interface :  Fast linear algebra routines
   SCALAPACK package :  Parallel linear algebra routines
   Shared memory     :  Shared parallel matrices
   BLAS/LAPACK       :  OpenBLAS 0.3.27  USE64BITINT DYNAMIC_ARCH NO_AFFINITY Haswell SINGLE_THREADED
        Core in use  :  Haswell
   Copyright (c) 2011-2014, The OpenBLAS Project


Your calculation utilizes the geometrical counterpoise correction gCP
Please cite in your paper:
H.Kruse, S. Grimme J.Chem.Phys., 136, (2012), 154101 
   

Your calculation utilizes the atom-pairwise dispersion correction
based on EEQ partial charges (D4)


================================================================================

----- Orbital basis set information -----
Your calculation utilizes the basis: def2-mTZVPP
   Stefan Grimme, Andreas Hansen, Sebastian Ehlert, and Jan-Michael Mewes 
   J. Chem. Phys. 154, 064103 (2021). DOI: 10.1063/5.0040021

----- AuxJ basis set information -----
Your calculation utilizes the basis: def2-mTZVPP/J
   Stefan Grimme, Andreas Hansen, Sebastian Ehlert, and Jan-Michael Mewes 
   J. Chem. Phys. 154, 000000 (2021). DOI: 10.1063/5.0040021

================================================================================
                                        WARNINGS
                       Please study these warnings very carefully!
================================================================================



WARNING: SCAN, rSCAN, or r2SCAN functional requested.
  ===> : libXC variant has now been activated.



WARNING: Geometry Optimization
  ===> : Switching off AutoStart
         For restart on a previous wavefunction, please use MOREAD

================================================================================
                                       INPUT FILE
================================================================================
NAME = /media/sergey/DATA1/makar/orca/1x2/r2scan-3c/1x2-b3pw.inp
|  1> ! r2scan-3c opt pal8 verytightscf tightopt
|  2> 
|  3> * xyz 0 1
|  4> C			4.649335	6.555397	0.000000
|  5> C			6.054808	6.554944	0.000000
|  6> C			3.927870	5.365037	0.000000
|  7> C			4.647930	4.172609	0.000000
|  8> C			6.054685	4.172025	0.000000
|  9> C			6.775465	5.364154	0.000000
| 10> C			4.234091	2.774492	0.000000
| 11> N			5.350760	1.981899	0.000000
| 12> C			6.467546	2.773852	0.000000
| 13> N			2.966493	2.386197	0.000000
| 14> C			2.575079	1.117380	0.000000
| 15> N			3.365325	0.000000	0.000000
| 16> C			2.575079	-1.117380	0.000000
| 17> N			2.966493	-2.386197	0.000000
| 18> C			4.234091	-2.774492	0.000000
| 19> N			5.350760	-1.981899	0.000000
| 20> C			6.467546	-2.773852	0.000000
| 21> C			6.054685	-4.172025	0.000000
| 22> C			4.647930	-4.172609	0.000000
| 23> C			3.927870	-5.365037	0.000000
| 24> C			4.649335	-6.555397	0.000000
| 25> C			6.054808	-6.554944	0.000000
| 26> C			6.775465	-5.364154	0.000000
| 27> N			7.735872	2.384837	0.000000
| 28> C			8.125916	1.116517	0.000000
| 29> N			7.333968	0.000000	0.000000
| 30> C			8.125916	-1.116517	0.000000
| 31> C			9.523775	-0.703535	0.000000
| 32> C			9.523775	0.703535	0.000000
| 33> C			10.716288	1.423781	0.000000
| 34> C			11.906822	0.702780	0.000000
| 35> C			11.906822	-0.702780	0.000000
| 36> C			10.716288	-1.423781	0.000000
| 37> N			7.735872	-2.384837	0.000000
| 38> H			4.119723	7.503852	0.000000
| 39> H			6.585053	7.503051	0.000000
| 40> H			2.842651	5.355854	0.000000
| 41> H			7.860679	5.354470	0.000000
| 42> H			2.842651	-5.355854	0.000000
| 43> H			4.119723	-7.503852	0.000000
| 44> H			6.585053	-7.503051	0.000000
| 45> H			7.860679	-5.354470	0.000000
| 46> H			10.707028	2.509006	0.000000
| 47> H			12.855111	1.232694	0.000000
| 48> H			12.855111	-1.232694	0.000000
| 49> H			10.707028	-2.509006	0.000000
| 50> C			-6.054808	6.554944	0.000000
| 51> C			-4.649335	6.555397	0.000000
| 52> C			-6.775465	5.364154	0.000000
| 53> C			-6.054685	4.172025	0.000000
| 54> C			-4.647930	4.172609	0.000000
| 55> C			-3.927870	5.365037	0.000000
| 56> C			-6.467546	2.773852	0.000000
| 57> N			-5.350760	1.981899	0.000000
| 58> C			-4.234091	2.774492	0.000000
| 59> N			-7.735872	2.384837	0.000000
| 60> C			-8.125916	1.116517	0.000000
| 61> N			-7.333968	0.000000	0.000000
| 62> C			-8.125916	-1.116517	0.000000
| 63> C			-9.523775	-0.703535	0.000000
| 64> C			-9.523775	0.703535	0.000000
| 65> C			-10.716288	1.423781	0.000000
| 66> C			-11.906822	0.702780	0.000000
| 67> C			-11.906822	-0.702780	0.000000
| 68> C			-10.716288	-1.423781	0.000000
| 69> N			-7.735872	-2.384837	0.000000
| 70> C			-6.467546	-2.773852	0.000000
| 71> N			-5.350760	-1.981899	0.000000
| 72> C			-4.234091	-2.774492	0.000000
| 73> C			-4.647930	-4.172609	0.000000
| 74> C			-6.054685	-4.172025	0.000000
| 75> C			-6.775465	-5.364154	0.000000
| 76> C			-6.054808	-6.554944	0.000000
| 77> C			-4.649335	-6.555397	0.000000
| 78> C			-3.927870	-5.365037	0.000000
| 79> N			-2.966493	2.386197	0.000000
| 80> C			-2.575079	1.117380	0.000000
| 81> N			-3.365325	0.000000	0.000000
| 82> C			-2.575079	-1.117380	0.000000
| 83> C			-1.177664	-0.710040	0.000000
| 84> C			-1.177664	0.710040	0.000000
| 85> C			0.000000	1.450666	0.000000
| 86> C			1.177664	0.710040	0.000000
| 87> C			1.177664	-0.710040	0.000000
| 88> C			0.000000	-1.450666	0.000000
| 89> N			-2.966493	-2.386197	0.000000
| 90> H			-6.585053	7.503051	0.000000
| 91> H			-4.119723	7.503852	0.000000
| 92> H			-7.860679	5.354470	0.000000
| 93> H			-2.842651	5.355854	0.000000
| 94> H			-10.707028	2.509006	0.000000
| 95> H			-12.855111	1.232694	0.000000
| 96> H			-12.855111	-1.232694	0.000000
| 97> H			-10.707028	-2.509006	0.000000
| 98> H			-7.860679	-5.354470	0.000000
| 99> H			-6.585053	-7.503051	0.000000
|100> H			-4.119723	-7.503852	0.000000
|101> H			-2.842651	-5.355854	0.000000
|102> H			0.000000	2.535106	0.000000
|103> H			0.000000	-2.535106	0.000000
|104> Zn			-5.351182	0.000000	0.000000
|105> Zn			5.351182	0.000000	0.000000
|106> *
|107> 
|108>                          ****END OF INPUT****
================================================================================

                       *****************************
                       * Geometry Optimization Run *
                       *****************************

Geometry optimization settings:
Update method            Update   .... BFGS
Choice of coordinates    CoordSys .... (2022) Redundant Internals
Initial Hessian          InHess   .... Almloef's Model
Max. no of cycles        MaxIter  .... 306

Convergence Tolerances:
Energy Change            TolE     ....  1.0000e-06 Eh
Max. Gradient            TolMAXG  ....  1.0000e-04 Eh/bohr
RMS Gradient             TolRMSG  ....  3.0000e-05 Eh/bohr
Max. Displacement        TolMAXD  ....  1.0000e-03 bohr
RMS Displacement         TolRMSD  ....  6.0000e-04 bohr
Strict Convergence                .... False

------------------------------------------------------------------------------
                        ORCA OPTIMIZATION COORDINATE SETUP
------------------------------------------------------------------------------

The optimization will be done in redundant internal coordinates (2022)
Making redundant internal coordinates   ...  (2022 redundants) done
Evaluating the initial hessian          ...  (Almloef) done
Evaluating the coordinates              ...  done
Calculating the B-matrix                .... done
Calculating the G-matrix                .... done
Diagonalizing the G-matrix              .... done
Small eigenvalue found = 1.998e-03
Small eigenvalue found = 2.409e-03
Small eigenvalue found = 5.299e-03
Small eigenvalue found = 7.858e-03
Small eigenvalue found = 8.978e-03
Small eigenvalue found = 1.045e-02
Small eigenvalue found = 1.616e-02
Small eigenvalue found = 1.622e-02
Small eigenvalue found = 2.218e-02
The first mode is                       ....  420
The number of degrees of freedom        ....  300

    -----------------------------------------------------------------
                    Redundant Internal Coordinates


    -----------------------------------------------------------------
         Definition                    Initial Value    Approx d2E/dq
    -----------------------------------------------------------------
      1. B(C   1,C   0)                  1.4055         0.590272   
      2. B(C   2,C   0)                  1.3919         0.620383   
      3. B(C   3,C   2)                  1.3930         0.618012   
      4. B(C   4,C   3)                  1.4068         0.587499   
      5. B(C   5,C   1)                  1.3919         0.620498   
      6. B(C   5,C   4)                  1.3931         0.617748   
      7. B(C   6,C   3)                  1.4581         0.486545   
      8. B(N   7,C   6)                  1.3694         0.603673   
      9. B(C   8,C   4)                  1.4579         0.486945   
     10. B(C   8,N   7)                  1.3691         0.604283   
     11. B(N   9,C   6)                  1.3257         0.708604   
     12. B(C  10,N   9)                  1.3278         0.703206   
     13. B(N  11,C  10)                  1.3686         0.605397   
     14. B(C  12,N  11)                  1.3686         0.605397   
     15. B(N  13,C  12)                  1.3278         0.703206   
     16. B(C  14,N  13)                  1.3257         0.708604   
     17. B(N  15,C  14)                  1.3694         0.603673   
     18. B(C  16,N  15)                  1.3691         0.604283   
     19. B(C  17,C  16)                  1.4579         0.486945   
     20. B(C  18,C  17)                  1.4068         0.587499   
     21. B(C  18,C  14)                  1.4581         0.486545   
     22. B(C  19,C  18)                  1.3930         0.618012   
     23. B(C  20,C  19)                  1.3919         0.620383   
     24. B(C  21,C  20)                  1.4055         0.590272   
     25. B(C  22,C  17)                  1.3931         0.617748   
     26. B(C  22,C  21)                  1.3919         0.620498   
     27. B(N  23,C   8)                  1.3266         0.706247   
     28. B(C  24,N  23)                  1.3269         0.705478   
     29. B(N  25,C  24)                  1.3689         0.604776   
     30. B(C  26,N  25)                  1.3689         0.604776   
     31. B(C  27,C  26)                  1.4576         0.487423   
     32. B(C  28,C  24)                  1.4576         0.487423   
     33. B(C  28,C  27)                  1.4071         0.586819   
     34. B(C  29,C  28)                  1.3931         0.617629   
     35. B(C  30,C  29)                  1.3918         0.620591   
     36. B(C  31,C  30)                  1.4056         0.590084   
     37. B(C  32,C  31)                  1.3918         0.620591   
     38. B(C  32,C  27)                  1.3931         0.617629   
     39. B(N  33,C  26)                  1.3269         0.705478   
     40. B(N  33,C  16)                  1.3266         0.706247   
     41. B(H  34,C   0)                  1.0863         0.365023   
     42. B(H  35,C   1)                  1.0863         0.365016   
     43. B(H  36,C   2)                  1.0853         0.366428   
     44. B(H  37,C   5)                  1.0853         0.366429   
     45. B(H  38,C  19)                  1.0853         0.366428   
     46. B(H  39,C  20)                  1.0863         0.365023   
     47. B(H  40,C   1)                 14.0680         0.000000   
     48. B(H  40,C  21)                  1.0863         0.365016   
     49. B(H  41,C  22)                  1.0853         0.366429   
     50. B(H  42,C  29)                  1.0853         0.366419   
     51. B(H  43,C  30)                  1.0863         0.365020   
     52. B(H  44,C  31)                  1.0863         0.365020   
     53. B(H  45,C  32)                  1.0853         0.366419   
     54. B(C  47,C  46)                  1.4055         0.590272   
     55. B(C  48,C  46)                  1.3919         0.620498   
     56. B(C  49,C  48)                  1.3931         0.617748   
     57. B(C  50,C  49)                  1.4068         0.587499   
     58. B(C  51,C  50)                  1.3930         0.618012   
     59. B(C  51,C  47)                  1.3919         0.620383   
     60. B(C  52,C  49)                  1.4579         0.486945   
     61. B(N  53,C  52)                  1.3691         0.604283   
     62. B(C  54,N  53)                  1.3694         0.603673   
     63. B(C  54,C  50)                  1.4581         0.486545   
     64. B(N  55,C  52)                  1.3266         0.706247   
     65. B(C  56,N  55)                  1.3269         0.705478   
     66. B(N  57,C  56)                  1.3689         0.604776   
     67. B(C  58,N  57)                  1.3689         0.604776   
     68. B(C  59,C  58)                  1.4576         0.487423   
     69. B(C  60,C  59)                  1.4071         0.586819   
     70. B(C  60,C  56)                  1.4576         0.487423   
     71. B(C  61,C  60)                  1.3931         0.617629   
     72. B(C  62,C  61)                  1.3918         0.620591   
     73. B(C  62,H  40)                 20.2308         0.000000   
     74. B(C  62,C   1)                 18.8909         0.000000   
     75. B(C  63,C  62)                  1.4056         0.590084   
     76. B(C  64,C  63)                  1.3918         0.620591   
     77. B(C  64,C  59)                  1.3931         0.617629   
     78. B(N  65,C  58)                  1.3269         0.705478   
     79. B(C  66,N  65)                  1.3266         0.706247   
     80. B(N  67,C  66)                  1.3691         0.604283   
     81. B(C  68,N  67)                  1.3694         0.603673   
     82. B(C  69,C  68)                  1.4581         0.486545   
     83. B(C  70,C  69)                  1.4068         0.587499   
     84. B(C  70,C  66)                  1.4579         0.486945   
     85. B(C  71,C  70)                  1.3931         0.617748   
     86. B(C  72,C  71)                  1.3919         0.620498   
     87. B(C  73,C  72)                  1.4055         0.590272   
     88. B(C  74,C  73)                  1.3919         0.620383   
     89. B(C  74,C  69)                  1.3930         0.618012   
     90. B(N  75,C  54)                  1.3257         0.708604   
     91. B(C  76,N  75)                  1.3278         0.703206   
     92. B(N  77,C  76)                  1.3686         0.605397   
     93. B(C  78,N  77)                  1.3686         0.605397   
     94. B(C  79,H  40)                 10.3153         0.000000   
     95. B(C  79,C   1)                 10.2513         0.000000   
     96. B(C  79,C  78)                  1.4556         0.491044   
     97. B(C  79,C  62)                 10.8218         0.000000   
     98. B(C  80,C  79)                  1.4201         0.559433   
     99. B(C  80,C  76)                  1.4556         0.491044   
    100. B(C  81,C  80)                  1.3912         0.622063   
    101. B(C  82,C  81)                  1.3912         0.622063   
    102. B(C  82,C  10)                  1.4556         0.491044   
    103. B(C  83,C  82)                  1.4201         0.559433   
    104. B(C  83,C  12)                  1.4556         0.491044   
    105. B(C  84,C  83)                  1.3912         0.622063   
    106. B(C  84,C  79)                  1.3912         0.622063   
    107. B(N  85,C  78)                  1.3278         0.703206   
    108. B(N  85,C  68)                  1.3257         0.708604   
    109. B(H  86,C  46)                  1.0863         0.365016   
    110. B(H  87,C  47)                  1.0863         0.365023   
    111. B(H  88,C  48)                  1.0853         0.366429   
    112. B(H  89,C  51)                  1.0853         0.366428   
    113. B(H  90,C  61)                  1.0853         0.366419   
    114. B(H  91,C  62)                  1.0863         0.365020   
    115. B(H  92,C  63)                  1.0863         0.365020   
    116. B(H  93,C  64)                  1.0853         0.366419   
    117. B(H  94,C  71)                  1.0853         0.366429   
    118. B(H  95,C  72)                  1.0863         0.365016   
    119. B(H  96,C  73)                  1.0863         0.365023   
    120. B(H  97,C  74)                  1.0853         0.366428   
    121. B(H  98,C  81)                  1.0844         0.367531   
    122. B(H  99,C  84)                  1.0844         0.367531   
    123. B(Zn100,N  77)                  1.9859         0.634378   
    124. B(Zn100,N  67)                  1.9819         0.643670   
    125. B(Zn100,N  57)                  1.9828         0.641576   
    126. B(Zn100,N  53)                  1.9819         0.643670   
    127. B(Zn101,N  25)                  1.9828         0.641576   
    128. B(Zn101,N  15)                  1.9819         0.643670   
    129. B(Zn101,N  11)                  1.9859         0.634378   
    130. B(Zn101,N   7)                  1.9819         0.643670   
    131. A(C   2,C   0,H  34)          119.6016         0.353758   
    132. A(C   1,C   0,H  34)          119.1972         0.350794   
    133. A(C   1,C   0,C   2)          121.2012         0.430297   
    134. A(C   0,C   1,C   5)          121.2005         0.430312   
    135. A(C   0,C   1,H  35)          119.1984         0.350792   
    136. A(C   5,C   1,H  35)          119.6011         0.353768   
    137. A(C   3,C   2,H  36)          120.6413         0.353759   
    138. A(C   0,C   2,H  36)          121.7044         0.353989   
    139. A(C   0,C   2,C   3)          117.6543         0.433863   
    140. A(C   2,C   3,C   6)          132.3853         0.415408   
    141. A(C   4,C   3,C   6)          106.4648         0.411688   
    142. A(C   2,C   3,C   4)          121.1499         0.429638   
    143. A(C   3,C   4,C   5)          121.1340         0.429605   
    144. A(C   5,C   4,C   8)          132.3910         0.415437   
    145. A(C   3,C   4,C   8)          106.4749         0.411748   
    146. A(C   4,C   5,H  37)          120.6465         0.353734   
    147. A(C   1,C   5,C   4)          117.6602         0.433845   
    148. A(C   1,C   5,H  37)          121.6933         0.354000   
    149. A(N   7,C   6,N   9)          127.6024         0.436722   
    150. A(C   3,C   6,N   7)          108.8779         0.411006   
    151. A(C   3,C   6,N   9)          123.5197         0.422901   
    152. A(C   6,N   7,C   8)          109.2917         0.424412   
    153. A(C   6,N   7,Zn101)          125.3787         0.482902   
    154. A(C   8,N   7,Zn101)          125.3296         0.482992   
    155. A(N   7,C   8,N  23)          127.6066         0.436539   
    156. A(C   4,C   8,N  23)          123.5027         0.422711   
    157. A(C   4,C   8,N   7)          108.8907         0.411140   
    158. A(C   6,N   9,C  10)          124.1754         0.448943   
    159. A(N  11,C  10,C  82)          109.0180         0.411886   
    160. A(N   9,C  10,N  11)          127.5865         0.436345   
    161. A(N   9,C  10,C  82)          123.3955         0.423019   
    162. A(C  12,N  11,Zn101)          125.2691         0.481862   
    163. A(C  10,N  11,Zn101)          125.2691         0.481862   
    164. A(C  10,N  11,C  12)          109.4617         0.424768   
    165. A(N  13,C  12,C  83)          123.3955         0.423019   
    166. A(N  11,C  12,N  13)          127.5865         0.436345   
    167. A(N  11,C  12,C  83)          109.0180         0.411886   
    168. A(C  12,N  13,C  14)          124.1754         0.448943   
    169. A(N  13,C  14,N  15)          127.6024         0.436722   
    170. A(N  15,C  14,C  18)          108.8779         0.411006   
    171. A(N  13,C  14,C  18)          123.5197         0.422901   
    172. A(C  16,N  15,Zn101)          125.3296         0.482992   
    173. A(C  14,N  15,Zn101)          125.3787         0.482902   
    174. A(C  14,N  15,C  16)          109.2917         0.424412   
    175. A(C  17,C  16,N  33)          123.5027         0.422711   
    176. A(N  15,C  16,C  17)          108.8907         0.411140   
    177. A(N  15,C  16,N  33)          127.6066         0.436539   
    178. A(C  16,C  17,C  18)          106.4749         0.411748   
    179. A(C  16,C  17,C  22)          132.3910         0.415437   
    180. A(C  18,C  17,C  22)          121.1340         0.429605   
    181. A(C  17,C  18,C  19)          121.1499         0.429638   
    182. A(C  14,C  18,C  19)          132.3853         0.415408   
    183. A(C  14,C  18,C  17)          106.4648         0.411688   
    184. A(C  18,C  19,C  20)          117.6543         0.433863   
    185. A(C  20,C  19,H  38)          121.7044         0.353989   
    186. A(C  18,C  19,H  38)          120.6413         0.353759   
    187. A(C  19,C  20,C  21)          121.2012         0.430297   
    188. A(C  19,C  20,H  39)          119.6016         0.353758   
    189. A(C  21,C  20,H  39)          119.1972         0.350794   
    190. A(C  22,C  21,H  40)          119.6011         0.353768   
    191. A(C  20,C  21,H  40)          119.1984         0.350792   
    192. A(C  20,C  21,C  22)          121.2005         0.430312   
    193. A(C  21,C  22,H  41)          121.6933         0.354000   
    194. A(C  17,C  22,H  41)          120.6465         0.353734   
    195. A(C  17,C  22,C  21)          117.6602         0.433845   
    196. A(C   8,N  23,C  24)          124.1457         0.448935   
    197. A(N  23,C  24,C  28)          123.5533         0.422703   
    198. A(N  23,C  24,N  25)          127.5577         0.436518   
    199. A(N  25,C  24,C  28)          108.8890         0.411271   
    200. A(C  24,N  25,Zn101)          125.3482         0.482775   
    201. A(C  24,N  25,C  26)          109.3037         0.424612   
    202. A(C  26,N  25,Zn101)          125.3482         0.482775   
    203. A(N  25,C  26,C  27)          108.8890         0.411271   
    204. A(C  27,C  26,N  33)          123.5533         0.422703   
    205. A(N  25,C  26,N  33)          127.5577         0.436518   
    206. A(C  26,C  27,C  32)          132.4100         0.415495   
    207. A(C  26,C  27,C  28)          106.4592         0.411735   
    208. A(C  28,C  27,C  32)          121.1309         0.429501   
    209. A(C  27,C  28,C  29)          121.1309         0.429501   
    210. A(C  24,C  28,C  29)          132.4100         0.415495   
    211. A(C  24,C  28,C  27)          106.4592         0.411735   
    212. A(C  30,C  29,H  42)          121.6885         0.354007   
    213. A(C  28,C  29,H  42)          120.6420         0.353720   
    214. A(C  28,C  29,C  30)          117.6696         0.433841   
    215. A(C  29,C  30,C  31)          121.1996         0.430299   
    216. A(C  31,C  30,H  43)          119.1969         0.350774   
    217. A(C  29,C  30,H  43)          119.6035         0.353778   
    218. A(C  30,C  31,C  32)          121.1996         0.430299   
    219. A(C  32,C  31,H  44)          119.6035         0.353778   
    220. A(C  30,C  31,H  44)          119.1969         0.350774   
    221. A(C  31,C  32,H  45)          121.6885         0.354007   
    222. A(C  27,C  32,C  31)          117.6696         0.433841   
    223. A(C  27,C  32,H  45)          120.6420         0.353720   
    224. A(C  16,N  33,C  26)          124.1457         0.448935   
    225. A(C  47,C  46,C  48)          121.2005         0.430312   
    226. A(C  48,C  46,H  86)          119.6011         0.353768   
    227. A(C  47,C  46,H  86)          119.1984         0.350792   
    228. A(C  46,C  47,C  51)          121.2012         0.430297   
    229. A(C  51,C  47,H  87)          119.6016         0.353758   
    230. A(C  46,C  47,H  87)          119.1972         0.350794   
    231. A(C  46,C  48,C  49)          117.6602         0.433845   
    232. A(C  46,C  48,H  88)          121.6933         0.354000   
    233. A(C  49,C  48,H  88)          120.6465         0.353734   
    234. A(C  48,C  49,C  50)          121.1340         0.429605   
    235. A(C  50,C  49,C  52)          106.4749         0.411748   
    236. A(C  48,C  49,C  52)          132.3910         0.415437   
    237. A(C  51,C  50,C  54)          132.3853         0.415408   
    238. A(C  49,C  50,C  54)          106.4648         0.411688   
    239. A(C  49,C  50,C  51)          121.1499         0.429638   
    240. A(C  47,C  51,C  50)          117.6543         0.433863   
    241. A(C  50,C  51,H  89)          120.6413         0.353759   
    242. A(C  47,C  51,H  89)          121.7044         0.353989   
    243. A(C  49,C  52,N  53)          108.8907         0.411140   
    244. A(N  53,C  52,N  55)          127.6066         0.436539   
    245. A(C  49,C  52,N  55)          123.5027         0.422711   
    246. A(C  54,N  53,Zn100)          125.3787         0.482902   
    247. A(C  52,N  53,Zn100)          125.3296         0.482992   
    248. A(C  52,N  53,C  54)          109.2917         0.424412   
    249. A(C  50,C  54,N  53)          108.8779         0.411006   
    250. A(N  53,C  54,N  75)          127.6024         0.436722   
    251. A(C  50,C  54,N  75)          123.5197         0.422901   
    252. A(C  52,N  55,C  56)          124.1457         0.448935   
    253. A(N  57,C  56,C  60)          108.8890         0.411271   
    254. A(N  55,C  56,C  60)          123.5533         0.422703   
    255. A(N  55,C  56,N  57)          127.5577         0.436518   
    256. A(C  56,N  57,C  58)          109.3037         0.424612   
    257. A(C  58,N  57,Zn100)          125.3482         0.482775   
    258. A(C  56,N  57,Zn100)          125.3482         0.482775   
    259. A(C  59,C  58,N  65)          123.5533         0.422703   
    260. A(N  57,C  58,N  65)          127.5577         0.436518   
    261. A(N  57,C  58,C  59)          108.8890         0.411271   
    262. A(C  60,C  59,C  64)          121.1309         0.429501   
    263. A(C  58,C  59,C  64)          132.4100         0.415495   
    264. A(C  58,C  59,C  60)          106.4592         0.411735   
    265. A(C  59,C  60,C  61)          121.1309         0.429501   
    266. A(C  56,C  60,C  61)          132.4100         0.415495   
    267. A(C  56,C  60,C  59)          106.4592         0.411735   
    268. A(C  60,C  61,C  62)          117.6696         0.433841   
    269. A(C  62,C  61,H  90)          121.6885         0.354007   
    270. A(C  60,C  61,H  90)          120.6420         0.353720   
    271. A(C  61,C  62,C  63)          121.1996         0.430299   
    272. A(C  63,C  62,H  91)          119.1969         0.350774   
    273. A(C  61,C  62,H  91)          119.6035         0.353778   
    274. A(C  62,C  63,C  64)          121.1996         0.430299   
    275. A(C  62,C  63,H  92)          119.1969         0.350774   
    276. A(C  64,C  63,H  92)          119.6035         0.353778   
    277. A(C  59,C  64,C  63)          117.6696         0.433841   
    278. A(C  63,C  64,H  93)          121.6885         0.354007   
    279. A(C  59,C  64,H  93)          120.6420         0.353720   
    280. A(C  58,N  65,C  66)          124.1457         0.448935   
    281. A(N  67,C  66,C  70)          108.8907         0.411140   
    282. A(N  65,C  66,C  70)          123.5027         0.422711   
    283. A(N  65,C  66,N  67)          127.6066         0.436539   
    284. A(C  66,N  67,C  68)          109.2917         0.424412   
    285. A(C  68,N  67,Zn100)          125.3787         0.482902   
    286. A(C  66,N  67,Zn100)          125.3296         0.482992   
    287. A(N  67,C  68,C  69)          108.8779         0.411006   
    288. A(C  69,C  68,N  85)          123.5197         0.422901   
    289. A(N  67,C  68,N  85)          127.6024         0.436722   
    290. A(C  68,C  69,C  70)          106.4648         0.411688   
    291. A(C  70,C  69,C  74)          121.1499         0.429638   
    292. A(C  68,C  69,C  74)          132.3853         0.415408   
    293. A(C  69,C  70,C  71)          121.1340         0.429605   
    294. A(C  66,C  70,C  71)          132.3910         0.415437   
    295. A(C  66,C  70,C  69)          106.4749         0.411748   
    296. A(C  70,C  71,C  72)          117.6602         0.433845   
    297. A(C  72,C  71,H  94)          121.6933         0.354000   
    298. A(C  70,C  71,H  94)          120.6465         0.353734   
    299. A(C  71,C  72,C  73)          121.2005         0.430312   
    300. A(C  73,C  72,H  95)          119.1984         0.350792   
    301. A(C  71,C  72,H  95)          119.6011         0.353768   
    302. A(C  74,C  73,H  96)          119.6016         0.353758   
    303. A(C  72,C  73,H  96)          119.1972         0.350794   
    304. A(C  72,C  73,C  74)          121.2012         0.430297   
    305. A(C  73,C  74,H  97)          121.7044         0.353989   
    306. A(C  69,C  74,H  97)          120.6413         0.353759   
    307. A(C  69,C  74,C  73)          117.6543         0.433863   
    308. A(C  54,N  75,C  76)          124.1754         0.448943   
    309. A(N  77,C  76,C  80)          109.0180         0.411886   
    310. A(N  75,C  76,C  80)          123.3955         0.423019   
    311. A(N  75,C  76,N  77)          127.5865         0.436345   
    312. A(C  78,N  77,Zn100)          125.2691         0.481862   
    313. A(C  76,N  77,Zn100)          125.2691         0.481862   
    314. A(C  76,N  77,C  78)          109.4617         0.424768   
    315. A(C  79,C  78,N  85)          123.3955         0.423019   
    316. A(N  77,C  78,N  85)          127.5865         0.436345   
    317. A(N  77,C  78,C  79)          109.0180         0.411886   
    318. A(C  80,C  79,C  84)          122.1655         0.426384   
    319. A(C  78,C  79,C  84)          131.5833         0.416572   
    320. A(C  78,C  79,C  80)          106.2512         0.408798   
    321. A(C  79,C  80,C  81)          122.1655         0.426384   
    322. A(C  76,C  80,C  81)          131.5833         0.416572   
    323. A(C  76,C  80,C  79)          106.2512         0.408798   
    324. A(C  82,C  81,H  98)          122.1655         0.354331   
    325. A(C  80,C  81,H  98)          122.1655         0.354331   
    326. A(C  80,C  81,C  82)          115.6689         0.434585   
    327. A(C  81,C  82,C  83)          122.1655         0.426384   
    328. A(C  10,C  82,C  83)          106.2512         0.408798   
    329. A(C  10,C  82,C  81)          131.5833         0.416572   
    330. A(C  82,C  83,C  84)          122.1655         0.426384   
    331. A(C  12,C  83,C  84)          131.5833         0.416572   
    332. A(C  12,C  83,C  82)          106.2512         0.408798   
    333. A(C  83,C  84,H  99)          122.1655         0.354331   
    334. A(C  79,C  84,H  99)          122.1655         0.354331   
    335. A(C  79,C  84,C  83)          115.6689         0.434585   
    336. A(C  68,N  85,C  78)          124.1754         0.448943   
    337. A(N  67,Zn100,N  77)           89.9878         0.550178   
    338. A(N  53,Zn100,N  77)           89.9878         0.550178   
    339. A(N  57,Zn100,N  67)           90.0122         0.551357   
    340. A(N  53,Zn100,N  57)           90.0122         0.551357   
    341. A(N  15,Zn101,N  25)           90.0122         0.551357   
    342. A(N   7,Zn101,N  25)           90.0122         0.551357   
    343. A(N  11,Zn101,N  15)           89.9878         0.550178   
    344. A(N   7,Zn101,N  11)           89.9878         0.550178   
    345. D(C   5,C   1,C   0,H  34)    180.0000         0.029823   
    346. D(H  35,C   1,C   0,H  34)      0.0000         0.029823   
    347. D(C   5,C   1,C   0,C   2)      0.0000         0.029823   
    348. D(H  35,C   1,C   0,C   2)    180.0000         0.029823   
    349. D(H  36,C   2,C   0,C   1)    180.0000         0.026634   
    350. D(C   3,C   2,C   0,C   1)      0.0000         0.026634   
    351. D(H  36,C   2,C   0,H  34)      0.0000         0.026634   
    352. D(C   3,C   2,C   0,H  34)    180.0000         0.026634   
    353. D(C   4,C   3,C   2,H  36)    180.0000         0.026419   
    354. D(C   6,C   3,C   2,H  36)      0.0000         0.026419   
    355. D(C   4,C   3,C   2,C   0)      0.0000         0.026419   
    356. D(C   6,C   3,C   2,C   0)    180.0000         0.026419   
    357. D(C   8,C   4,C   3,C   6)      0.0000         0.023743   
    358. D(C   5,C   4,C   3,C   6)    180.0000         0.023743   
    359. D(C   5,C   4,C   3,C   2)      0.0000         0.023743   
    360. D(C   8,C   4,C   3,C   2)    180.0000         0.023743   
    361. D(H  37,C   5,C   4,C   3)    180.0000         0.026395   
    362. D(C   1,C   5,C   4,C   8)    180.0000         0.026395   
    363. D(H  37,C   5,C   4,C   8)      0.0000         0.026395   
    364. D(H  37,C   5,C   1,C   0)    180.0000         0.033183   
    365. D(C   1,C   5,C   4,C   3)      0.0000         0.026395   
    366. D(H  37,C   5,C   1,H  35)      0.0000         0.033183   
    367. D(C   4,C   5,C   1,C   0)      0.0000         0.033183   
    368. D(C   4,C   5,C   1,H  35)    180.0000         0.033183   
    369. D(N   9,C   6,C   3,C   4)    180.0000         0.016118   
    370. D(N   7,C   6,C   3,C   2)    180.0000         0.016118   
    371. D(N   7,C   6,C   3,C   4)      0.0000         0.016118   
    372. D(N   9,C   6,C   3,C   2)      0.0000         0.016118   
    373. D(C   8,N   7,C   6,N   9)    180.0000         0.029390   
    374. D(C   8,N   7,C   6,C   3)      0.0000         0.029390   
    375. D(Zn101,N   7,C   6,C   3)    180.0000         0.029390   
    376. D(Zn101,N   7,C   6,N   9)      0.0000         0.029390   
    377. D(N   7,C   8,C   4,C   3)      0.0000         0.016145   
    378. D(N  23,C   8,N   7,C   6)    180.0000         0.029454   
    379. D(C   4,C   8,N   7,Zn101)    180.0000         0.029454   
    380. D(N  23,C   8,N   7,Zn101)      0.0000         0.029454   
    381. D(N  23,C   8,C   4,C   3)    180.0000         0.016145   
    382. D(C   4,C   8,N   7,C   6)      0.0000         0.029454   
    383. D(N  23,C   8,C   4,C   5)      0.0000         0.016145   
    384. D(N   7,C   8,C   4,C   5)    180.0000         0.016145   
    385. D(C  10,N   9,C   6,C   3)    180.0000         0.037691   
    386. D(C  10,N   9,C   6,N   7)      0.0000         0.037691   
    387. D(C  82,C  10,N   9,C   6)    180.0000         0.037064   
    388. D(N  11,C  10,N   9,C   6)      0.0000         0.037064   
    389. D(Zn101,N  11,C  10,C  82)    180.0000         0.029571   
    390. D(C  12,N  11,C  10,C  82)      0.0000         0.029571   
    391. D(Zn101,N  11,C  10,N   9)      0.0000         0.029571   
    392. D(C  12,N  11,C  10,N   9)    180.0000         0.029571   
    393. D(C  83,C  12,N  11,Zn101)    180.0000         0.029571   
    394. D(N  13,C  12,N  11,Zn101)      0.0000         0.029571   
    395. D(N  13,C  12,N  11,C  10)    180.0000         0.029571   
    396. D(C  83,C  12,N  11,C  10)      0.0000         0.029571   
    397. D(C  14,N  13,C  12,C  83)    180.0000         0.037064   
    398. D(C  14,N  13,C  12,N  11)      0.0000         0.037064   
    399. D(C  18,C  14,N  13,C  12)    180.0000         0.037691   
    400. D(N  15,C  14,N  13,C  12)      0.0000         0.037691   
    401. D(C  16,N  15,C  14,N  13)    180.0000         0.029390   
    402. D(Zn101,N  15,C  14,C  18)    180.0000         0.029390   
    403. D(C  16,N  15,N   7,C   8)      0.0000         0.001500   
    404. D(C  14,N  15,N   7,C   8)    180.0000         0.001500   
    405. D(C  16,N  15,C  14,C  18)      0.0000         0.029390   
    406. D(Zn101,N  15,C  14,N  13)      0.0000         0.029390   
    407. D(C  14,N  15,N   7,C   6)      0.0000         0.001500   
    408. D(C  16,N  15,N   7,C   6)    180.0000         0.001500   
    409. D(N  33,C  16,N  15,Zn101)      0.0000         0.029454   
    410. D(N  33,C  16,N  15,C  14)    180.0000         0.029454   
    411. D(C  17,C  16,N  15,Zn101)    180.0000         0.029454   
    412. D(C  17,C  16,N  15,C  14)      0.0000         0.029454   
    413. D(C  22,C  17,C  16,N  33)      0.0000         0.016145   
    414. D(C  22,C  17,C  16,N  15)    180.0000         0.016145   
    415. D(C  18,C  17,C  16,N  33)    180.0000         0.016145   
    416. D(C  18,C  17,C  16,N  15)      0.0000         0.016145   
    417. D(C  19,C  18,C  17,C  16)    180.0000         0.023743   
    418. D(C  19,C  18,C  17,C  22)      0.0000         0.023743   
    419. D(C  14,C  18,C  17,C  22)    180.0000         0.023743   
    420. D(C  14,C  18,C  17,C  16)      0.0000         0.023743   
    421. D(C  19,C  18,C  14,N  13)      0.0000         0.016118   
    422. D(C  19,C  18,C  14,N  15)    180.0000         0.016118   
    423. D(C  17,C  18,C  14,N  15)      0.0000         0.016118   
    424. D(C  17,C  18,C  14,N  13)    180.0000         0.016118   
    425. D(H  38,C  19,C  18,C  17)    180.0000         0.026419   
    426. D(H  38,C  19,C  18,C  14)      0.0000         0.026419   
    427. D(C  20,C  19,C  18,C  17)      0.0000         0.026419   
    428. D(C  20,C  19,C  18,C  14)    180.0000         0.026419   
    429. D(H  39,C  20,C  19,C  18)    180.0000         0.026634   
    430. D(H  39,C  20,C  19,H  38)      0.0000         0.026634   
    431. D(C  21,C  20,C  19,H  38)    180.0000         0.026634   
    432. D(C  21,C  20,C  19,C  18)      0.0000         0.026634   
    433. D(H  40,C  21,C  20,H  39)      0.0000         0.023978   
    434. D(H  40,C  21,C  20,C  19)    180.0000         0.023978   
    435. D(C  22,C  21,C  20,H  39)    180.0000         0.023978   
    436. D(C  22,C  21,C  20,C  19)      0.0000         0.023978   
    437. D(H  41,C  22,C  21,H  40)      0.0000         0.026645   
    438. D(H  41,C  22,C  21,C  20)    180.0000         0.026645   
    439. D(C  17,C  22,C  21,H  40)    180.0000         0.026645   
    440. D(C  17,C  22,C  21,C  20)      0.0000         0.026645   
    441. D(H  41,C  22,C  17,C  18)    180.0000         0.026395   
    442. D(H  41,C  22,C  17,C  16)      0.0000         0.026395   
    443. D(C  21,C  22,C  17,C  18)      0.0000         0.026395   
    444. D(C  21,C  22,C  17,C  16)    180.0000         0.026395   
    445. D(C  24,N  23,C   8,N   7)      0.0000         0.037416   
    446. D(C  24,N  23,C   8,C   4)    180.0000         0.037416   
    447. D(C  28,C  24,N  23,C   8)    180.0000         0.037327   
    448. D(N  25,C  24,N  23,C   8)      0.0000         0.037327   
    449. D(Zn101,N  25,C  24,C  28)    180.0000         0.029506   
    450. D(Zn101,N  25,C  24,N  23)      0.0000         0.029506   
    451. D(C  26,N  25,C  24,C  28)      0.0000         0.029506   
    452. D(C  26,N  25,C  24,N  23)    180.0000         0.029506   
    453. D(C  26,N  25,N  11,C  12)      0.0000         0.001500   
    454. D(C  26,N  25,N  11,C  10)    180.0000         0.001500   
    455. D(C  24,N  25,N  11,C  12)    180.0000         0.001500   
    456. D(C  24,N  25,N  11,C  10)      0.0000         0.001500   
    457. D(N  33,C  26,N  25,Zn101)      0.0000         0.029506   
    458. D(N  33,C  26,N  25,C  24)    180.0000         0.029506   
    459. D(C  27,C  26,N  25,Zn101)    180.0000         0.029506   
    460. D(C  27,C  26,N  25,C  24)      0.0000         0.029506   
    461. D(C  32,C  27,C  26,N  33)      0.0000         0.016176   
    462. D(C  32,C  27,C  26,N  25)    180.0000         0.016176   
    463. D(C  28,C  27,C  26,N  33)    180.0000         0.016176   
    464. D(C  28,C  27,C  26,N  25)      0.0000         0.016176   
    465. D(C  24,C  28,C  27,C  32)    180.0000         0.023685   
    466. D(C  24,C  28,C  27,C  26)      0.0000         0.023685   
    467. D(C  29,C  28,C  24,N  25)    180.0000         0.016176   
    468. D(C  29,C  28,C  24,N  23)      0.0000         0.016176   
    469. D(C  27,C  28,C  24,N  25)      0.0000         0.016176   
    470. D(C  29,C  28,C  27,C  26)    180.0000         0.023685   
    471. D(C  27,C  28,C  24,N  23)    180.0000         0.016176   
    472. D(C  29,C  28,C  27,C  32)      0.0000         0.023685   
    473. D(H  42,C  29,C  28,C  27)    180.0000         0.026384   
    474. D(H  42,C  29,C  28,C  24)      0.0000         0.026384   
    475. D(C  30,C  29,C  28,C  27)      0.0000         0.026384   
    476. D(C  30,C  29,C  28,C  24)    180.0000         0.026384   
    477. D(H  43,C  30,C  29,H  42)      0.0000         0.026653   
    478. D(H  43,C  30,C  29,C  28)    180.0000         0.026653   
    479. D(C  31,C  30,C  29,H  42)    180.0000         0.026653   
    480. D(C  31,C  30,C  29,C  28)      0.0000         0.026653   
    481. D(H  44,C  31,C  30,H  43)      0.0000         0.023962   
    482. D(H  44,C  31,C  30,C  29)    180.0000         0.023962   
    483. D(C  32,C  31,C  30,H  43)    180.0000         0.023962   
    484. D(C  32,C  31,C  30,C  29)      0.0000         0.023962   
    485. D(H  45,C  32,C  31,H  44)      0.0000         0.026653   
    486. D(H  45,C  32,C  31,C  30)    180.0000         0.026653   
    487. D(C  27,C  32,C  31,H  44)    180.0000         0.026653   
    488. D(C  27,C  32,C  31,C  30)      0.0000         0.026653   
    489. D(H  45,C  32,C  27,C  28)    180.0000         0.026384   
    490. D(H  45,C  32,C  27,C  26)      0.0000         0.026384   
    491. D(C  31,C  32,C  27,C  28)      0.0000         0.026384   
    492. D(C  31,C  32,C  27,C  26)    180.0000         0.026384   
    493. D(C  16,N  33,C  26,C  27)    180.0000         0.037327   
    494. D(C  16,N  33,C  26,N  25)      0.0000         0.037327   
    495. D(C  26,N  33,C  16,C  17)    180.0000         0.037416   
    496. D(C  26,N  33,C  16,N  15)      0.0000         0.037416   
    497. D(H  87,C  47,C  46,H  86)      0.0000         0.023978   
    498. D(H  87,C  47,C  46,C  48)    180.0000         0.023978   
    499. D(C  51,C  47,C  46,H  86)    180.0000         0.023978   
    500. D(C  51,C  47,C  46,C  48)      0.0000         0.023978   
    501. D(H  88,C  48,C  46,H  86)      0.0000         0.026645   
    502. D(H  88,C  48,C  46,C  47)    180.0000         0.026645   
    503. D(C  49,C  48,C  46,H  86)    180.0000         0.026645   
    504. D(C  49,C  48,C  46,C  47)      0.0000         0.026645   
    505. D(C  52,C  49,C  48,H  88)      0.0000         0.026395   
    506. D(C  52,C  49,C  48,C  46)    180.0000         0.026395   
    507. D(C  50,C  49,C  48,H  88)    180.0000         0.026395   
    508. D(C  50,C  49,C  48,C  46)      0.0000         0.026395   
    509. D(C  54,C  50,C  49,C  52)      0.0000         0.023743   
    510. D(C  54,C  50,C  49,C  48)    180.0000         0.023743   
    511. D(C  51,C  50,C  49,C  52)    180.0000         0.023743   
    512. D(C  51,C  50,C  49,C  48)      0.0000         0.023743   
    513. D(H  89,C  51,C  50,C  54)      0.0000         0.026419   
    514. D(H  89,C  51,C  50,C  49)    180.0000         0.026419   
    515. D(C  47,C  51,C  50,C  54)    180.0000         0.026419   
    516. D(C  47,C  51,C  50,C  49)      0.0000         0.026419   
    517. D(H  89,C  51,C  47,H  87)      0.0000         0.026634   
    518. D(H  89,C  51,C  47,C  46)    180.0000         0.026634   
    519. D(C  50,C  51,C  47,C  46)      0.0000         0.026634   
    520. D(C  50,C  51,C  47,H  87)    180.0000         0.026634   
    521. D(N  55,C  52,C  49,C  50)    180.0000         0.016145   
    522. D(N  53,C  52,C  49,C  48)    180.0000         0.016145   
    523. D(N  55,C  52,C  49,C  48)      0.0000         0.016145   
    524. D(N  53,C  52,C  49,C  50)      0.0000         0.016145   
    525. D(Zn100,N  53,C  52,N  55)      0.0000         0.029454   
    526. D(Zn100,N  53,C  52,C  49)    180.0000         0.029454   
    527. D(C  54,N  53,C  52,N  55)    180.0000         0.029454   
    528. D(C  54,N  53,C  52,C  49)      0.0000         0.029454   
    529. D(N  75,C  54,N  53,Zn100)      0.0000         0.029390   
    530. D(N  75,C  54,N  53,C  52)    180.0000         0.029390   
    531. D(C  50,C  54,N  53,Zn100)    180.0000         0.029390   
    532. D(C  50,C  54,N  53,C  52)      0.0000         0.029390   
    533. D(N  75,C  54,C  50,C  51)      0.0000         0.016118   
    534. D(N  53,C  54,C  50,C  49)      0.0000         0.016118   
    535. D(N  53,C  54,C  50,C  51)    180.0000         0.016118   
    536. D(N  75,C  54,C  50,C  49)    180.0000         0.016118   
    537. D(C  56,N  55,C  52,N  53)      0.0000         0.037416   
    538. D(C  56,N  55,C  52,C  49)    180.0000         0.037416   
    539. D(C  60,C  56,N  55,C  52)    180.0000         0.037327   
    540. D(N  57,C  56,N  55,C  52)      0.0000         0.037327   
    541. D(Zn100,N  57,C  56,C  60)    180.0000         0.029506   
    542. D(Zn100,N  57,C  56,N  55)      0.0000         0.029506   
    543. D(C  58,N  57,C  56,C  60)      0.0000         0.029506   
    544. D(C  58,N  57,C  56,N  55)    180.0000         0.029506   
    545. D(N  65,C  58,N  57,Zn100)      0.0000         0.029506   
    546. D(N  65,C  58,N  57,C  56)    180.0000         0.029506   
    547. D(C  59,C  58,N  57,Zn100)    180.0000         0.029506   
    548. D(C  59,C  58,N  57,C  56)      0.0000         0.029506   
    549. D(C  64,C  59,C  58,N  65)      0.0000         0.016176   
    550. D(C  64,C  59,C  58,N  57)    180.0000         0.016176   
    551. D(C  60,C  59,C  58,N  65)    180.0000         0.016176   
    552. D(C  60,C  59,C  58,N  57)      0.0000         0.016176   
    553. D(C  61,C  60,C  59,C  64)      0.0000         0.023685   
    554. D(C  61,C  60,C  59,C  58)    180.0000         0.023685   
    555. D(C  56,C  60,C  59,C  64)    180.0000         0.023685   
    556. D(C  56,C  60,C  59,C  58)      0.0000         0.023685   
    557. D(C  61,C  60,C  56,N  57)    180.0000         0.016176   
    558. D(C  61,C  60,C  56,N  55)      0.0000         0.016176   
    559. D(C  59,C  60,C  56,N  57)      0.0000         0.016176   
    560. D(C  59,C  60,C  56,N  55)    180.0000         0.016176   
    561. D(H  90,C  61,C  60,C  59)    180.0000         0.026384   
    562. D(H  90,C  61,C  60,C  56)      0.0000         0.026384   
    563. D(C  62,C  61,C  60,C  59)      0.0000         0.026384   
    564. D(C  62,C  61,C  60,C  56)    180.0000         0.026384   
    565. D(H  91,C  62,C  61,H  90)      0.0000         0.033193   
    566. D(H  91,C  62,C  61,C  60)    180.0000         0.033193   
    567. D(C  63,C  62,C  61,H  90)    180.0000         0.033193   
    568. D(C  63,C  62,C  61,C  60)      0.0000         0.033193   
    569. D(H  92,C  63,C  62,H  91)      0.0000         0.029803   
    570. D(H  92,C  63,C  62,C  61)    180.0000         0.029803   
    571. D(C  64,C  63,C  62,H  91)    180.0000         0.029803   
    572. D(C  64,C  63,C  62,C  61)      0.0000         0.029803   
    573. D(H  93,C  64,C  63,H  92)      0.0000         0.026653   
    574. D(H  93,C  64,C  63,C  62)    180.0000         0.026653   
    575. D(C  59,C  64,C  63,H  92)    180.0000         0.026653   
    576. D(C  59,C  64,C  63,C  62)      0.0000         0.026653   
    577. D(H  93,C  64,C  59,C  60)    180.0000         0.026384   
    578. D(H  93,C  64,C  59,C  58)      0.0000         0.026384   
    579. D(C  63,C  64,C  59,C  60)      0.0000         0.026384   
    580. D(C  63,C  64,C  59,C  58)    180.0000         0.026384   
    581. D(C  66,N  65,C  58,C  59)    180.0000         0.037327   
    582. D(C  66,N  65,C  58,N  57)      0.0000         0.037327   
    583. D(C  70,C  66,N  65,C  58)    180.0000         0.037416   
    584. D(N  67,C  66,N  65,C  58)      0.0000         0.037416   
    585. D(Zn100,N  67,C  66,C  70)    180.0000         0.029454   
    586. D(Zn100,N  67,C  66,N  65)      0.0000         0.029454   
    587. D(C  68,N  67,C  66,C  70)      0.0000         0.029454   
    588. D(C  68,N  67,C  66,N  65)    180.0000         0.029454   
    589. D(C  68,N  67,N  53,C  54)      0.0000         0.001500   
    590. D(C  68,N  67,N  53,C  52)    180.0000         0.001500   
    591. D(C  66,N  67,N  53,C  54)    180.0000         0.001500   
    592. D(C  66,N  67,N  53,C  52)      0.0000         0.001500   
    593. D(N  85,C  68,N  67,Zn100)      0.0000         0.029390   
    594. D(N  85,C  68,N  67,C  66)    180.0000         0.029390   
    595. D(C  69,C  68,N  67,Zn100)    180.0000         0.029390   
    596. D(C  69,C  68,N  67,C  66)      0.0000         0.029390   
    597. D(C  74,C  69,C  68,N  67)    180.0000         0.016118   
    598. D(C  70,C  69,C  68,N  85)    180.0000         0.016118   
    599. D(C  70,C  69,C  68,N  67)      0.0000         0.016118   
    600. D(C  74,C  69,C  68,N  85)      0.0000         0.016118   
    601. D(C  71,C  70,C  69,C  74)      0.0000         0.023743   
    602. D(C  71,C  70,C  69,C  68)    180.0000         0.023743   
    603. D(C  66,C  70,C  69,C  74)    180.0000         0.023743   
    604. D(C  66,C  70,C  69,C  68)      0.0000         0.023743   
    605. D(C  71,C  70,C  66,N  67)    180.0000         0.016145   
    606. D(C  71,C  70,C  66,N  65)      0.0000         0.016145   
    607. D(C  69,C  70,C  66,N  67)      0.0000         0.016145   
    608. D(C  69,C  70,C  66,N  65)    180.0000         0.016145   
    609. D(H  94,C  71,C  70,C  69)    180.0000         0.026395   
    610. D(H  94,C  71,C  70,C  66)      0.0000         0.026395   
    611. D(C  72,C  71,C  70,C  69)      0.0000         0.026395   
    612. D(C  72,C  71,C  70,C  66)    180.0000         0.026395   
    613. D(H  95,C  72,C  71,H  94)      0.0000         0.026645   
    614. D(H  95,C  72,C  71,C  70)    180.0000         0.026645   
    615. D(C  73,C  72,C  71,H  94)    180.0000         0.026645   
    616. D(C  73,C  72,C  71,C  70)      0.0000         0.026645   
    617. D(H  96,C  73,C  72,H  95)      0.0000         0.023978   
    618. D(H  96,C  73,C  72,C  71)    180.0000         0.023978   
    619. D(C  74,C  73,C  72,H  95)    180.0000         0.023978   
    620. D(C  74,C  73,C  72,C  71)      0.0000         0.023978   
    621. D(H  97,C  74,C  73,H  96)      0.0000         0.026634   
    622. D(H  97,C  74,C  73,C  72)    180.0000         0.026634   
    623. D(C  69,C  74,C  73,H  96)    180.0000         0.026634   
    624. D(C  69,C  74,C  73,C  72)      0.0000         0.026634   
    625. D(H  97,C  74,C  69,C  70)    180.0000         0.026419   
    626. D(H  97,C  74,C  69,C  68)      0.0000         0.026419   
    627. D(C  73,C  74,C  69,C  70)      0.0000         0.026419   
    628. D(C  73,C  74,C  69,C  68)    180.0000         0.026419   
    629. D(C  76,N  75,C  54,N  53)      0.0000         0.037691   
    630. D(C  76,N  75,C  54,C  50)    180.0000         0.037691   
    631. D(C  80,C  76,N  75,C  54)    180.0000         0.037064   
    632. D(N  77,C  76,N  75,C  54)      0.0000         0.037064   
    633. D(Zn100,N  77,C  76,C  80)    180.0000         0.029571   
    634. D(Zn100,N  77,C  76,N  75)      0.0000         0.029571   
    635. D(C  78,N  77,C  76,C  80)      0.0000         0.029571   
    636. D(C  78,N  77,C  76,N  75)    180.0000         0.029571   
    637. D(C  78,N  77,N  57,C  58)      0.0000         0.001500   
    638. D(C  78,N  77,N  57,C  56)    180.0000         0.001500   
    639. D(C  76,N  77,N  57,C  58)    180.0000         0.001500   
    640. D(C  76,N  77,N  57,C  56)      0.0000         0.001500   
    641. D(N  85,C  78,N  77,Zn100)      0.0000         0.029571   
    642. D(N  85,C  78,N  77,C  76)    180.0000         0.029571   
    643. D(C  79,C  78,N  77,Zn100)    180.0000         0.029571   
    644. D(C  79,C  78,N  77,C  76)      0.0000         0.029571   
    645. D(C  84,C  79,C  78,N  85)      0.0000         0.020298   
    646. D(C  84,C  79,C  78,N  77)    180.0000         0.020298   
    647. D(C  80,C  79,C  78,N  85)    180.0000         0.020298   
    648. D(C  80,C  79,C  78,N  77)      0.0000         0.020298   
    649. D(C  81,C  80,C  79,C  84)      0.0000         0.026620   
    650. D(C  81,C  80,C  79,C  78)    180.0000         0.026620   
    651. D(C  76,C  80,C  79,C  84)    180.0000         0.026620   
    652. D(C  76,C  80,C  79,C  78)      0.0000         0.026620   
    653. D(C  81,C  80,C  76,N  77)    180.0000         0.016419   
    654. D(C  81,C  80,C  76,N  75)      0.0000         0.016419   
    655. D(C  79,C  80,C  76,N  77)      0.0000         0.016419   
    656. D(C  79,C  80,C  76,N  75)    180.0000         0.016419   
    657. D(H  98,C  81,C  80,C  79)    180.0000         0.026788   
    658. D(H  98,C  81,C  80,C  76)      0.0000         0.026788   
    659. D(C  82,C  81,C  80,C  79)      0.0000         0.026788   
    660. D(C  82,C  81,C  80,C  76)    180.0000         0.026788   
    661. D(C  83,C  82,C  81,H  98)    180.0000         0.026788   
    662. D(C  83,C  82,C  81,C  80)      0.0000         0.026788   
    663. D(C  10,C  82,C  81,H  98)      0.0000         0.026788   
    664. D(C  10,C  82,C  81,C  80)    180.0000         0.026788   
    665. D(C  83,C  82,C  10,N  11)      0.0000         0.016419   
    666. D(C  83,C  82,C  10,N   9)    180.0000         0.016419   
    667. D(C  81,C  82,C  10,N  11)    180.0000         0.016419   
    668. D(C  81,C  82,C  10,N   9)      0.0000         0.016419   
    669. D(C  84,C  83,C  82,C  81)      0.0000         0.021436   
    670. D(C  84,C  83,C  82,C  10)    180.0000         0.021436   
    671. D(C  12,C  83,C  82,C  81)    180.0000         0.021436   
    672. D(C  12,C  83,C  82,C  10)      0.0000         0.021436   
    673. D(C  84,C  83,C  12,N  13)      0.0000         0.016419   
    674. D(C  84,C  83,C  12,N  11)    180.0000         0.016419   
    675. D(C  82,C  83,C  12,N  13)    180.0000         0.016419   
    676. D(C  82,C  83,C  12,N  11)      0.0000         0.016419   
    677. D(H  99,C  84,C  83,C  82)    180.0000         0.026788   
    678. D(H  99,C  84,C  83,C  12)      0.0000         0.026788   
    679. D(C  79,C  84,C  83,C  82)      0.0000         0.026788   
    680. D(C  79,C  84,C  83,C  12)    180.0000         0.026788   
    681. D(H  99,C  84,C  79,C  80)    180.0000         0.033362   
    682. D(H  99,C  84,C  79,C  78)      0.0000         0.033362   
    683. D(C  83,C  84,C  79,C  80)      0.0000         0.033362   
    684. D(C  83,C  84,C  79,C  78)    180.0000         0.033362   
    685. D(C  68,N  85,C  78,C  79)    180.0000         0.037064   
    686. D(C  68,N  85,C  78,N  77)      0.0000         0.037064   
    687. D(C  78,N  85,C  68,C  69)    180.0000         0.037691   
    688. D(C  78,N  85,C  68,N  67)      0.0000         0.037691   
    689. D(N  67,Zn100,N  77,C  78)      0.0000         0.003335   
    690. D(N  53,Zn100,N  77,C  78)    180.0000         0.003335   
    691. D(N  53,Zn100,N  77,C  76)      0.0000         0.003335   
    692. D(N  77,Zn100,N  67,C  68)      0.0000         0.003390   
    693. D(N  77,Zn100,N  67,C  66)    180.0000         0.003390   
    694. D(N  57,Zn100,N  67,C  68)    180.0000         0.003390   
    695. D(N  57,Zn100,N  67,C  66)      0.0000         0.003390   
    696. D(N  67,Zn100,N  57,C  58)      0.0000         0.003378   
    697. D(N  67,Zn100,N  57,C  56)    180.0000         0.003378   
    698. D(N  53,Zn100,N  57,C  58)    180.0000         0.003378   
    699. D(N  53,Zn100,N  57,C  56)      0.0000         0.003378   
    700. D(N  77,Zn100,N  53,C  54)      0.0000         0.003390   
    701. D(N  77,Zn100,N  53,C  52)    180.0000         0.003390   
    702. D(N  67,Zn100,N  77,C  76)    180.0000         0.003335   
    703. D(N  57,Zn100,N  53,C  54)    180.0000         0.003390   
    704. D(N  57,Zn100,N  53,C  52)      0.0000         0.003390   
    705. D(N  15,Zn101,N  25,C  26)      0.0000         0.003378   
    706. D(N   7,Zn101,N  25,C  26)    180.0000         0.003378   
    707. D(N   7,Zn101,N  25,C  24)      0.0000         0.003378   
    708. D(N  25,Zn101,N  15,C  16)      0.0000         0.003390   
    709. D(N  25,Zn101,N  15,C  14)    180.0000         0.003390   
    710. D(N  11,Zn101,N  15,C  16)    180.0000         0.003390   
    711. D(N  11,Zn101,N  15,C  14)      0.0000         0.003390   
    712. D(N  15,Zn101,N  11,C  12)      0.0000         0.003335   
    713. D(N  15,Zn101,N  11,C  10)    180.0000         0.003335   
    714. D(N   7,Zn101,N  11,C  12)    180.0000         0.003335   
    715. D(N   7,Zn101,N  11,C  10)      0.0000         0.003335   
    716. D(N  25,Zn101,N   7,C   8)      0.0000         0.003390   
    717. D(N  25,Zn101,N   7,C   6)    180.0000         0.003390   
    718. D(N  15,Zn101,N  25,C  24)    180.0000         0.003378   
    719. D(N  11,Zn101,N   7,C   8)    180.0000         0.003390   
    720. D(N  11,Zn101,N   7,C   6)      0.0000         0.003390   
    -----------------------------------------------------------------

Number of atoms                         .... 102
Number of degrees of freedom            .... 720


         *************************************************************
         *                GEOMETRY OPTIMIZATION CYCLE   1            *
         *************************************************************
---------------------------------
CARTESIAN COORDINATES (ANGSTROEM)
---------------------------------
  C      4.649335    6.555397    0.000000
  C      6.054808    6.554944    0.000000
  C      3.927870    5.365037    0.000000
  C      4.647930    4.172609    0.000000
  C      6.054685    4.172025    0.000000
  C      6.775465    5.364154    0.000000
  C      4.234091    2.774492    0.000000
  N      5.350760    1.981899    0.000000
  C      6.467546    2.773852    0.000000
  N      2.966493    2.386197    0.000000
  C      2.575079    1.117380    0.000000
  N      3.365325    0.000000    0.000000
  C      2.575079   -1.117380    0.000000
  N      2.966493   -2.386197    0.000000
  C      4.234091   -2.774492    0.000000
  N      5.350760   -1.981899    0.000000
  C      6.467546   -2.773852    0.000000
  C      6.054685   -4.172025    0.000000
  C      4.647930   -4.172609    0.000000
  C      3.927870   -5.365037    0.000000
  C      4.649335   -6.555397    0.000000
  C      6.054808   -6.554944    0.000000
  C      6.775465   -5.364154    0.000000
  N      7.735872    2.384837    0.000000
  C      8.125916    1.116517    0.000000
  N      7.333968    0.000000    0.000000
  C      8.125916   -1.116517    0.000000
  C      9.523775   -0.703535    0.000000
  C      9.523775    0.703535    0.000000
  C     10.716288    1.423781    0.000000
  C     11.906822    0.702780    0.000000
  C     11.906822   -0.702780    0.000000
  C     10.716288   -1.423781    0.000000
  N      7.735872   -2.384837    0.000000
  H      4.119723    7.503852    0.000000
  H      6.585053    7.503051    0.000000
  H      2.842651    5.355854    0.000000
  H      7.860679    5.354470    0.000000
  H      2.842651   -5.355854    0.000000
  H      4.119723   -7.503852    0.000000
  H      6.585053   -7.503051    0.000000
  H      7.860679   -5.354470    0.000000
  H     10.707028    2.509006    0.000000
  H     12.855111    1.232694    0.000000
  H     12.855111   -1.232694    0.000000
  H     10.707028   -2.509006    0.000000
  C     -6.054808    6.554944    0.000000
  C     -4.649335    6.555397    0.000000
  C     -6.775465    5.364154    0.000000
  C     -6.054685    4.172025    0.000000
  C     -4.647930    4.172609    0.000000
  C     -3.927870    5.365037    0.000000
  C     -6.467546    2.773852    0.000000
  N     -5.350760    1.981899    0.000000
  C     -4.234091    2.774492    0.000000
  N     -7.735872    2.384837    0.000000
  C     -8.125916    1.116517    0.000000
  N     -7.333968    0.000000    0.000000
  C     -8.125916   -1.116517    0.000000
  C     -9.523775   -0.703535    0.000000
  C     -9.523775    0.703535    0.000000
  C    -10.716288    1.423781    0.000000
  C    -11.906822    0.702780    0.000000
  C    -11.906822   -0.702780    0.000000
  C    -10.716288   -1.423781    0.000000
  N     -7.735872   -2.384837    0.000000
  C     -6.467546   -2.773852    0.000000
  N     -5.350760   -1.981899    0.000000
  C     -4.234091   -2.774492    0.000000
  C     -4.647930   -4.172609    0.000000
  C     -6.054685   -4.172025    0.000000
  C     -6.775465   -5.364154    0.000000
  C     -6.054808   -6.554944    0.000000
  C     -4.649335   -6.555397    0.000000
  C     -3.927870   -5.365037    0.000000
  N     -2.966493    2.386197    0.000000
  C     -2.575079    1.117380    0.000000
  N     -3.365325    0.000000    0.000000
  C     -2.575079   -1.117380    0.000000
  C     -1.177664   -0.710040    0.000000
  C     -1.177664    0.710040    0.000000
  C      0.000000    1.450666    0.000000
  C      1.177664    0.710040    0.000000
  C      1.177664   -0.710040    0.000000
  C      0.000000   -1.450666    0.000000
  N     -2.966493   -2.386197    0.000000
  H     -6.585053    7.503051    0.000000
  H     -4.119723    7.503852    0.000000
  H     -7.860679    5.354470    0.000000
  H     -2.842651    5.355854    0.000000
  H    -10.707028    2.509006    0.000000
  H    -12.855111    1.232694    0.000000
  H    -12.855111   -1.232694    0.000000
  H    -10.707028   -2.509006    0.000000
  H     -7.860679   -5.354470    0.000000
  H     -6.585053   -7.503051    0.000000
  H     -4.119723   -7.503852    0.000000
  H     -2.842651   -5.355854    0.000000
  H      0.000000    2.535106    0.000000
  H      0.000000   -2.535106    0.000000
  Zn    -5.351182    0.000000    0.000000
  Zn     5.351182    0.000000    0.000000

----------------------------
CARTESIAN COORDINATES (A.U.)
----------------------------
  NO LB      ZA    FRAG     MASS         X           Y           Z
   0 C     6.0000    0    12.011    8.785970   12.387905    0.000000
   1 C     6.0000    0    12.011   11.441929   12.387049    0.000000
   2 C     6.0000    0    12.011    7.422599   10.138451    0.000000
   3 C     6.0000    0    12.011    8.783315    7.885088    0.000000
   4 C     6.0000    0    12.011   11.441696    7.883985    0.000000
   5 C     6.0000    0    12.011   12.803773   10.136782    0.000000
   6 C     6.0000    0    12.011    8.001272    5.243030    0.000000
   7 N     7.0000    0    14.007   10.111471    3.745246    0.000000
   8 C     6.0000    0    12.011   12.221891    5.241821    0.000000
   9 N     7.0000    0    14.007    5.605859    4.509259    0.000000
  10 C     6.0000    0    12.011    4.866194    2.111542    0.000000
  11 N     7.0000    0    14.007    6.359543    0.000000    0.000000
  12 C     6.0000    0    12.011    4.866194   -2.111542    0.000000
  13 N     7.0000    0    14.007    5.605859   -4.509259    0.000000
  14 C     6.0000    0    12.011    8.001272   -5.243030    0.000000
  15 N     7.0000    0    14.007   10.111471   -3.745246    0.000000
  16 C     6.0000    0    12.011   12.221891   -5.241821    0.000000
  17 C     6.0000    0    12.011   11.441696   -7.883985    0.000000
  18 C     6.0000    0    12.011    8.783315   -7.885088    0.000000
  19 C     6.0000    0    12.011    7.422599  -10.138451    0.000000
  20 C     6.0000    0    12.011    8.785970  -12.387905    0.000000
  21 C     6.0000    0    12.011   11.441929  -12.387049    0.000000
  22 C     6.0000    0    12.011   12.803773  -10.136782    0.000000
  23 N     7.0000    0    14.007   14.618679    4.506689    0.000000
  24 C     6.0000    0    12.011   15.355756    2.109911    0.000000
  25 N     7.0000    0    14.007   13.859191    0.000000    0.000000
  26 C     6.0000    0    12.011   15.355756   -2.109911    0.000000
  27 C     6.0000    0    12.011   17.997327   -1.329488    0.000000
  28 C     6.0000    0    12.011   17.997327    1.329488    0.000000
  29 C     6.0000    0    12.011   20.250849    2.690556    0.000000
  30 C     6.0000    0    12.011   22.500633    1.328062    0.000000
  31 C     6.0000    0    12.011   22.500633   -1.328062    0.000000
  32 C     6.0000    0    12.011   20.250849   -2.690556    0.000000
  33 N     7.0000    0    14.007   14.618679   -4.506689    0.000000
  34 H     1.0000    0     1.008    7.785148   14.180225    0.000000
  35 H     1.0000    0     1.008   12.443947   14.178712    0.000000
  36 H     1.0000    0     1.008    5.371832   10.121097    0.000000
  37 H     1.0000    0     1.008   14.854531   10.118482    0.000000
  38 H     1.0000    0     1.008    5.371832  -10.121097    0.000000
  39 H     1.0000    0     1.008    7.785148  -14.180225    0.000000
  40 H     1.0000    0     1.008   12.443947  -14.178712    0.000000
  41 H     1.0000    0     1.008   14.854531  -10.118482    0.000000
  42 H     1.0000    0     1.008   20.233351    4.741334    0.000000
  43 H     1.0000    0     1.008   24.292639    2.329454    0.000000
  44 H     1.0000    0     1.008   24.292639   -2.329454    0.000000
  45 H     1.0000    0     1.008   20.233351   -4.741334    0.000000
  46 C     6.0000    0    12.011  -11.441929   12.387049    0.000000
  47 C     6.0000    0    12.011   -8.785970   12.387905    0.000000
  48 C     6.0000    0    12.011  -12.803773   10.136782    0.000000
  49 C     6.0000    0    12.011  -11.441696    7.883985    0.000000
  50 C     6.0000    0    12.011   -8.783315    7.885088    0.000000
  51 C     6.0000    0    12.011   -7.422599   10.138451    0.000000
  52 C     6.0000    0    12.011  -12.221891    5.241821    0.000000
  53 N     7.0000    0    14.007  -10.111471    3.745246    0.000000
  54 C     6.0000    0    12.011   -8.001272    5.243030    0.000000
  55 N     7.0000    0    14.007  -14.618679    4.506689    0.000000
  56 C     6.0000    0    12.011  -15.355756    2.109911    0.000000
  57 N     7.0000    0    14.007  -13.859191    0.000000    0.000000
  58 C     6.0000    0    12.011  -15.355756   -2.109911    0.000000
  59 C     6.0000    0    12.011  -17.997327   -1.329488    0.000000
  60 C     6.0000    0    12.011  -17.997327    1.329488    0.000000
  61 C     6.0000    0    12.011  -20.250849    2.690556    0.000000
  62 C     6.0000    0    12.011  -22.500633    1.328062    0.000000
  63 C     6.0000    0    12.011  -22.500633   -1.328062    0.000000
  64 C     6.0000    0    12.011  -20.250849   -2.690556    0.000000
  65 N     7.0000    0    14.007  -14.618679   -4.506689    0.000000
  66 C     6.0000    0    12.011  -12.221891   -5.241821    0.000000
  67 N     7.0000    0    14.007  -10.111471   -3.745246    0.000000
  68 C     6.0000    0    12.011   -8.001272   -5.243030    0.000000
  69 C     6.0000    0    12.011   -8.783315   -7.885088    0.000000
  70 C     6.0000    0    12.011  -11.441696   -7.883985    0.000000
  71 C     6.0000    0    12.011  -12.803773  -10.136782    0.000000
  72 C     6.0000    0    12.011  -11.441929  -12.387049    0.000000
  73 C     6.0000    0    12.011   -8.785970  -12.387905    0.000000
  74 C     6.0000    0    12.011   -7.422599  -10.138451    0.000000
  75 N     7.0000    0    14.007   -5.605859    4.509259    0.000000
  76 C     6.0000    0    12.011   -4.866194    2.111542    0.000000
  77 N     7.0000    0    14.007   -6.359543    0.000000    0.000000
  78 C     6.0000    0    12.011   -4.866194   -2.111542    0.000000
  79 C     6.0000    0    12.011   -2.225462   -1.341781    0.000000
  80 C     6.0000    0    12.011   -2.225462    1.341781    0.000000
  81 C     6.0000    0    12.011    0.000000    2.741361    0.000000
  82 C     6.0000    0    12.011    2.225462    1.341781    0.000000
  83 C     6.0000    0    12.011    2.225462   -1.341781    0.000000
  84 C     6.0000    0    12.011    0.000000   -2.741361    0.000000
  85 N     7.0000    0    14.007   -5.605859   -4.509259    0.000000
  86 H     1.0000    0     1.008  -12.443947   14.178712    0.000000
  87 H     1.0000    0     1.008   -7.785148   14.180225    0.000000
  88 H     1.0000    0     1.008  -14.854531   10.118482    0.000000
  89 H     1.0000    0     1.008   -5.371832   10.121097    0.000000
  90 H     1.0000    0     1.008  -20.233351    4.741334    0.000000
  91 H     1.0000    0     1.008  -24.292639    2.329454    0.000000
  92 H     1.0000    0     1.008  -24.292639   -2.329454    0.000000
  93 H     1.0000    0     1.008  -20.233351   -4.741334    0.000000
  94 H     1.0000    0     1.008  -14.854531  -10.118482    0.000000
  95 H     1.0000    0     1.008  -12.443947  -14.178712    0.000000
  96 H     1.0000    0     1.008   -7.785148  -14.180225    0.000000
[...]
 41 H      0.8370     1.0000     0.1630     0.9664     0.9664    -0.0000
 42 H      0.8371     1.0000     0.1629     0.9665     0.9665    -0.0000
 43 H      0.8501     1.0000     0.1499     0.9690     0.9690    -0.0000
 44 H      0.8501     1.0000     0.1499     0.9690     0.9690    -0.0000
 45 H      0.8371     1.0000     0.1629     0.9665     0.9665    -0.0000
 46 C      6.1184     6.0000    -0.1184     3.7608     3.7608    -0.0000
 47 C      6.1213     6.0000    -0.1213     3.7621     3.7621     0.0000
 48 C      6.3300     6.0000    -0.3300     3.7147     3.7147     0.0000
 49 C      5.9200     6.0000     0.0800     3.2364     3.2364     0.0000
 50 C      6.0051     6.0000    -0.0051     3.2377     3.2377    -0.0000
 51 C      6.3325     6.0000    -0.3325     3.7164     3.7164    -0.0000
 52 C      5.9006     6.0000     0.0994     4.0424     4.0424    -0.0000
 53 N      6.9732     7.0000     0.0268     3.2961     3.2961    -0.0000
 54 C      5.8404     6.0000     0.1596     3.9924     3.9924     0.0000
 55 N      7.1824     7.0000    -0.1824     3.1014     3.1014    -0.0000
 56 C      5.8832     6.0000     0.1168     4.0170     4.0170    -0.0000
 57 N      6.9760     7.0000     0.0240     3.2965     3.2965     0.0000
 58 C      5.8832     6.0000     0.1168     4.0170     4.0170    -0.0000
 59 C      5.9452     6.0000     0.0548     3.2469     3.2469     0.0000
 60 C      5.9452     6.0000     0.0548     3.2469     3.2469    -0.0000
 61 C      6.3312     6.0000    -0.3312     3.7151     3.7151     0.0000
 62 C      6.1194     6.0000    -0.1194     3.7620     3.7620    -0.0000
 63 C      6.1194     6.0000    -0.1194     3.7620     3.7620     0.0000
 64 C      6.3312     6.0000    -0.3312     3.7151     3.7151     0.0000
 65 N      7.1824     7.0000    -0.1824     3.1014     3.1014    -0.0000
 66 C      5.9006     6.0000     0.0994     4.0424     4.0424    -0.0000
 67 N      6.9732     7.0000     0.0268     3.2961     3.2961    -0.0000
 68 C      5.8404     6.0000     0.1596     3.9924     3.9924    -0.0000
 69 C      6.0051     6.0000    -0.0051     3.2377     3.2377    -0.0000
 70 C      5.9200     6.0000     0.0800     3.2364     3.2364     0.0000
 71 C      6.3300     6.0000    -0.3300     3.7147     3.7147    -0.0000
 72 C      6.1184     6.0000    -0.1184     3.7608     3.7608    -0.0000
 73 C      6.1213     6.0000    -0.1213     3.7621     3.7621     0.0000
 74 C      6.3325     6.0000    -0.3325     3.7164     3.7164     0.0000
 75 N      7.1861     7.0000    -0.1861     3.1115     3.1115     0.0000
 76 C      6.0194     6.0000    -0.0194     4.0219     4.0219    -0.0000
 77 N      6.9917     7.0000     0.0083     3.2839     3.2839    -0.0000
 78 C      6.0194     6.0000    -0.0194     4.0219     4.0219     0.0000
 79 C      5.7629     6.0000     0.2371     2.9751     2.9751     0.0000
 80 C      5.7629     6.0000     0.2371     2.9751     2.9751     0.0000
 81 C      6.5141     6.0000    -0.5141     3.4001     3.4001    -0.0000
 82 C      5.7629     6.0000     0.2371     2.9751     2.9751    -0.0000
 83 C      5.7629     6.0000     0.2371     2.9751     2.9751    -0.0000
 84 C      6.5141     6.0000    -0.5141     3.4001     3.4001     0.0000
 85 N      7.1861     7.0000    -0.1861     3.1115     3.1115    -0.0000
 86 H      0.8501     1.0000     0.1499     0.9690     0.9690    -0.0000
 87 H      0.8503     1.0000     0.1497     0.9691     0.9691     0.0000
 88 H      0.8370     1.0000     0.1630     0.9664     0.9664     0.0000
 89 H      0.8372     1.0000     0.1628     0.9666     0.9666    -0.0000
 90 H      0.8371     1.0000     0.1629     0.9665     0.9665     0.0000
 91 H      0.8501     1.0000     0.1499     0.9690     0.9690    -0.0000
 92 H      0.8501     1.0000     0.1499     0.9690     0.9690     0.0000
 93 H      0.8371     1.0000     0.1629     0.9665     0.9665    -0.0000
 94 H      0.8370     1.0000     0.1630     0.9664     0.9664    -0.0000
 95 H      0.8501     1.0000     0.1499     0.9690     0.9690    -0.0000
 96 H      0.8503     1.0000     0.1497     0.9691     0.9691     0.0000
 97 H      0.8372     1.0000     0.1628     0.9666     0.9666     0.0000
 98 H      0.8217     1.0000     0.1783     0.9632     0.9632     0.0000
 99 H      0.8217     1.0000     0.1783     0.9632     0.9632     0.0000
100 Zn    29.6303    30.0000     0.3697     2.5828     2.5828    -0.0000
101 Zn    29.6303    30.0000     0.3697     2.5828     2.5828    -0.0000

  Mayer bond orders larger than 0.100000
B(  0-C ,  1-C ) :   1.3642 B(  0-C ,  2-C ) :   1.3965 B(  0-C , 34-H ) :   0.9522 
B(  1-C ,  5-C ) :   1.3938 B(  1-C , 35-H ) :   0.9518 B(  2-C ,  3-C ) :   1.3282 
B(  2-C , 36-H ) :   0.9583 B(  3-C ,  4-C ) :   1.1977 B(  3-C ,  6-C ) :   0.8711 
B(  3-C ,  9-N ) :  -0.1889 B(  4-C ,  5-C ) :   1.3180 B(  4-C ,  8-C ) :   0.9104 
B(  4-C , 23-N ) :  -0.1800 B(  5-C , 37-H ) :   0.9578 B(  6-C ,  7-N ) :   1.3168 
B(  6-C ,  8-C ) :   0.1016 B(  6-C ,  9-N ) :   1.5396 B(  7-N ,  8-C ) :   1.3077 
B(  7-N ,101-Zn) :   0.5683 B(  8-C , 23-N ) :   1.5367 B(  9-N , 10-C ) :   1.5531 
B(  9-N , 82-C ) :  -0.1990 B( 10-C , 11-N ) :   1.2904 B( 10-C , 12-C ) :   0.1895 
B( 10-C , 82-C ) :   0.9088 B( 11-N , 12-C ) :   1.2904 B( 11-N ,101-Zn) :   0.5692 
B( 12-C , 13-N ) :   1.5531 B( 12-C , 83-C ) :   0.9088 B( 13-N , 14-C ) :   1.5396 
B( 13-N , 18-C ) :  -0.1889 B( 13-N , 83-C ) :  -0.1990 B( 14-C , 15-N ) :   1.3168 
B( 14-C , 16-C ) :   0.1016 B( 14-C , 18-C ) :   0.8711 B( 15-N , 16-C ) :   1.3077 
B( 15-N ,101-Zn) :   0.5683 B( 16-C , 17-C ) :   0.9104 B( 16-C , 33-N ) :   1.5367 
B( 17-C , 18-C ) :   1.1977 B( 17-C , 22-C ) :   1.3180 B( 17-C , 33-N ) :  -0.1800 
B( 18-C , 19-C ) :   1.3282 B( 19-C , 20-C ) :   1.3965 B( 19-C , 38-H ) :   0.9583 
B( 20-C , 21-C ) :   1.3642 B( 20-C , 39-H ) :   0.9522 B( 21-C , 22-C ) :   1.3938 
B( 21-C , 40-H ) :   0.9518 B( 22-C , 41-H ) :   0.9578 B( 23-N , 24-C ) :   1.5355 
B( 23-N , 28-C ) :  -0.1836 B( 24-C , 25-N ) :   1.3096 B( 24-C , 26-C ) :   0.1039 
B( 24-C , 28-C ) :   0.8993 B( 25-N , 26-C ) :   1.3096 B( 25-N ,101-Zn) :   0.5680 
B( 26-C , 27-C ) :   0.8993 B( 26-C , 33-N ) :   1.5355 B( 27-C , 28-C ) :   1.2044 
B( 27-C , 32-C ) :   1.3194 B( 27-C , 33-N ) :  -0.1836 B( 28-C , 29-C ) :   1.3194 
B( 29-C , 30-C ) :   1.3948 B( 29-C , 42-H ) :   0.9581 B( 30-C , 31-C ) :   1.3638 
B( 30-C , 43-H ) :   0.9519 B( 31-C , 32-C ) :   1.3948 B( 31-C , 44-H ) :   0.9519 
B( 32-C , 45-H ) :   0.9581 B( 46-C , 47-C ) :   1.3642 B( 46-C , 48-C ) :   1.3938 
B( 46-C , 86-H ) :   0.9518 B( 47-C , 51-C ) :   1.3965 B( 47-C , 87-H ) :   0.9522 
B( 48-C , 49-C ) :   1.3180 B( 48-C , 88-H ) :   0.9578 B( 49-C , 50-C ) :   1.1977 
B( 49-C , 52-C ) :   0.9104 B( 49-C , 55-N ) :  -0.1800 B( 50-C , 51-C ) :   1.3282 
B( 50-C , 54-C ) :   0.8711 B( 50-C , 75-N ) :  -0.1889 B( 51-C , 89-H ) :   0.9583 
B( 52-C , 53-N ) :   1.3077 B( 52-C , 54-C ) :   0.1016 B( 52-C , 55-N ) :   1.5367 
B( 53-N , 54-C ) :   1.3168 B( 53-N ,100-Zn) :   0.5684 B( 54-C , 75-N ) :   1.5396 
B( 55-N , 56-C ) :   1.5355 B( 55-N , 60-C ) :  -0.1836 B( 56-C , 57-N ) :   1.3096 
B( 56-C , 58-C ) :   0.1039 B( 56-C , 60-C ) :   0.8993 B( 57-N , 58-C ) :   1.3096 
B( 57-N ,100-Zn) :   0.5680 B( 58-C , 59-C ) :   0.8993 B( 58-C , 65-N ) :   1.5355 
B( 59-C , 60-C ) :   1.2044 B( 59-C , 64-C ) :   1.3194 B( 59-C , 65-N ) :  -0.1836 
B( 60-C , 61-C ) :   1.3194 B( 61-C , 62-C ) :   1.3948 B( 61-C , 90-H ) :   0.9581 
B( 62-C , 63-C ) :   1.3638 B( 62-C , 91-H ) :   0.9519 B( 63-C , 64-C ) :   1.3948 
B( 63-C , 92-H ) :   0.9519 B( 64-C , 93-H ) :   0.9581 B( 65-N , 66-C ) :   1.5367 
B( 65-N , 70-C ) :  -0.1800 B( 66-C , 67-N ) :   1.3077 B( 66-C , 68-C ) :   0.1016 
B( 66-C , 70-C ) :   0.9104 B( 67-N , 68-C ) :   1.3168 B( 67-N ,100-Zn) :   0.5684 
B( 68-C , 69-C ) :   0.8711 B( 68-C , 85-N ) :   1.5396 B( 69-C , 70-C ) :   1.1977 
B( 69-C , 74-C ) :   1.3282 B( 69-C , 85-N ) :  -0.1889 B( 70-C , 71-C ) :   1.3180 
B( 71-C , 72-C ) :   1.3938 B( 71-C , 94-H ) :   0.9578 B( 72-C , 73-C ) :   1.3642 
B( 72-C , 95-H ) :   0.9518 B( 73-C , 74-C ) :   1.3965 B( 73-C , 96-H ) :   0.9522 
B( 74-C , 97-H ) :   0.9583 B( 75-N , 76-C ) :   1.5531 B( 75-N , 80-C ) :  -0.1990 
B( 76-C , 77-N ) :   1.2904 B( 76-C , 78-C ) :   0.1895 B( 76-C , 80-C ) :   0.9088 
B( 77-N , 78-C ) :   1.2904 B( 77-N ,100-Zn) :   0.5692 B( 78-C , 79-C ) :   0.9088 
B( 78-C , 85-N ) :   1.5531 B( 79-C , 80-C ) :   1.0866 B( 79-C , 82-C ) :   0.1599 
B( 79-C , 84-C ) :   1.1971 B( 79-C , 85-N ) :  -0.1990 B( 80-C , 81-C ) :   1.1971 
B( 80-C , 83-C ) :   0.1599 B( 81-C , 82-C ) :   1.1971 B( 81-C , 98-H ) :   0.9723 
B( 82-C , 83-C ) :   1.0866 B( 83-C , 84-C ) :   1.1971 B( 84-C , 99-H ) :   0.9723 


-------
TIMINGS
-------

Total SCF time: 0 days 0 hours 0 min 59 sec 

Total time                  ....      59.332 sec
Sum of individual times     ....      58.390 sec  ( 98.4%)

SCF preparation             ....       0.771 sec  (  1.3%)
Fock matrix formation       ....      49.513 sec  ( 83.5%)
  Startup                   ....       0.425 sec  (  0.9% of F)
  Split-RI-J                ....      18.083 sec  ( 36.5% of F)
  XC integration            ....      29.721 sec  ( 60.0% of F)
    XC Preparation          ....       0.000 sec  (  0.0% of XC)
    Basis function eval.    ....       3.690 sec  ( 12.4% of XC)
    Density eval.           ....      14.442 sec  ( 48.6% of XC)
    XC-Functional eval.     ....       0.706 sec  (  2.4% of XC)
    XC-Potential eval.      ....       9.771 sec  ( 32.9% of XC)
Diagonalization             ....       0.000 sec  (  0.0%)
Density matrix formation    ....       1.442 sec  (  2.4%)
Total Energy calculation    ....       0.320 sec  (  0.5%)
Population analysis         ....       0.566 sec  (  1.0%)
Orbital Transformation      ....       0.725 sec  (  1.2%)
Orbital Orthonormalization  ....       0.000 sec  (  0.0%)
DIIS solution               ....       0.825 sec  (  1.4%)
SOSCF solution              ....       4.228 sec  (  7.1%)
Finished LeanSCF after  59.6 sec

Maximum memory used throughout the entire LEANSCF-calculation: 286.6 MB


-------------------------------------------------------------------------------
                          DFT DISPERSION CORRECTION                            
                                                                               
                                DFTD4 V3.4.0                                   
-------------------------------------------------------------------------------
The R2SCAN3C composite method is recognized
Using three-body term ABC
Active option DFTDOPT                   ...         5   

-------------------------   ----------------
Dispersion correction           -0.071497344
-------------------------   ----------------

------------------   -----------------
gCP correction             0.060736914
------------------   -----------------

-------------------------   --------------------
FINAL SINGLE POINT ENERGY     -6660.383229083594
-------------------------   --------------------

                                *** OPTIMIZATION RUN DONE ***



           ************************************************************
           *        Program running with 8 parallel MPI-processes     *
           *              working on a common directory               *
           ************************************************************

------------------------------------------------------------------------------
                              ORCA PROPERTY CALCULATIONS
------------------------------------------------------------------------------

GBWName                                 ... /media/sergey/DATA1/makar/orca/1x2/r2scan-3c/1x2-b3pw.gbw
Number of atoms                         ...    102
Number of basis functions               ...   1682
Max core memory                         ...   1024 MB

Electric properties:
Dipole moment                           ... YES
Quadrupole moment                       ...  NO
Static polarizability (Dipole/Dipole)   ...  NO
Static polarizability (Dipole/Quad.)    ...  NO
Static polarizability (Quad./Quad.)     ...  NO
Static polarizability (Velocity)        ...  NO

Atomic electric properties:
Dipole moment                           ...  NO
Quadrupole moment                       ...  NO
Static polarizability                   ...  NO

Choice of electric origin               ... Center of mass
Position of electric origin             ...     0.000001     0.000000     0.000000

General magnetic properties:
Magnetizability                         ...  NO

EPR properties:
g-Tensor (aka g-matrix)                 ...  NO
Zero-Field splitting spin-orbit         ...  NO
Zero-field splitting spin-spin          ...  NO
Hyperfine couplings                     ...  NO (   0 nuclei)
Quadrupole couplings                    ...  NO (   0 nuclei)
Contact density                         ...  NO (   0 nuclei)

NMR properties:
Chemical shifts                         ...  NO (   0 nuclei)
Spin-rotation constants                 ...  NO (   0 nuclei)
Spin-spin couplings                     ...  NO (   0 nuclei,    0 pairs)

Choice of magnetic origin               ... GIAO
Position of magnetic origin             ...     0.000000     0.000000     0.000000

Properties with geometric perturbations:
SCF Hessian                             ...  NO
IR spectrum                             ...  NO
VCD spectrum                            ...  NO
X-ray spectroscopy properties:
SCF XES/XAS/RIXS spectra                ...  NO


-------------
DIPOLE MOMENT
-------------

Method             : SCF
Type of density    : Electron Density
Multiplicity       :   1
Irrep              :   0
Energy             : -6660.3724686530513281 Eh
Relativity type    : 
Basis              : AO
                                X                 Y                 Z
Electronic contribution:      0.000071143       0.000013908       0.000022023
Nuclear contribution   :     -0.000071577      -0.000014706      -0.000022664
                        -----------------------------------------
Total Dipole Moment    :     -0.000000434      -0.000000798      -0.000000641
                        -----------------------------------------
Magnitude (a.u.)       :      0.000001112
Magnitude (Debye)      :      0.000002826



--------------------
Rotational spectrum 
--------------------
 
Rotational constants in cm-1:             0.001500             0.000380             0.000303 
Rotational constants in MHz :            44.956757            11.401442             9.094894 

Dipole components along the rotational axes: 
x,y,z [a.u.] :     0.000000    -0.000001    -0.000001 
x,y,z [Debye]:     0.000001    -0.000002    -0.000002 

 

Dipole moment calculation done in   0.1 sec 

Maximum memory used throughout the entire PROP-calculation: 244.5 MB

--------------------------------
SUGGESTED CITATIONS FOR THIS RUN
--------------------------------

Below you find a list of papers that are relevant to this ORCA run
We neither can nor want to force you to cite these papers, but we appreciate if you do
You receive ORCA, which is the product of decades of hard work by many enthusiastic individuals, for free
The only thing we kindly ask in return is that you cite our papers,
We deeply appreciate it, if you show your appreciation for ORCA by not just citing the generic ORCA reference.

Please note that relegating all ORCA citations to the supporting information does *not* help us.
SI sections are not indexed - citations you put there will not count into any citation statistics
But we need these citations in order to attract the funding resources that allow us to do what we are doing

Therefore, if you are a happy ORCA user, please consider citing a few of the papers listed below in the main body of your paper

In addition to the list printed below, the program has created the file /media/sergey/DATA1/makar/orca/1x2/r2scan-3c/1x2-b3pw.bibtex that contains the list in bibtex format
You can import this file easily into all common literature databanks and citation aid programs


List of essential papers. We consider these as the minimum necessary citations

  1. Neese,F.
     Software update: the ORCA program system, version 5.0
     WIRES Comput. Molec. Sci., 2022 12(1)e1606
     doi.org/10.1002/wcms.1606
  2. Grimme,S.; Hansen,A.; Ehlert,S.; Mewes,J.
     r2SCAN-3c: A 'Swiss army knife' composite electronic-structure method
     J. Chem. Phys., 2021 154 064103
     doi.org/10.1063/5.0040021

List of papers to cite with high priority. The work reported in these papers was absolutely
necessary for this run to complete.
Our perspective: the developers of density functionals and basis sets usually get cited in chemistry papers
Good! But without the algorithms to do something with them, the functionals or basis sets would not do anything.
Hence, in our opinion, the algorithm design and method developments papers are equally worthy of getting cited

  1. Neese,F.
     An improvement of the resolution of the identity approximation for the formation of the Coulomb matrix
     J. Comp. Chem., 2003 24(14)1740-1747
     doi.org/10.1002/jcc.10318
  2. Neese,F.
     The SHARK Integral Generation and Digestion System
     J. Comp. Chem., 2022  1-16
     doi.org/10.1002/jcc.26942
  3. Lehtola,S.; Steigemann,C.; Oliveira,M.; Marques,M.
     Recent developments in Libxc - A comprehensive library of functionals for density functional theory
     Software X, 2018 7 
     doi.org/10.1016/j.softx.2017.11.002
  4. Caldeweyher,E.; Bannwarth,C.; Grimme,S.
     Extension of the D3 dispersion coefficient model
     J. Chem. Phys., 2017 147 034112
     doi.org/10.1063/1.4993215
  5. Caldeweyher,E.; Ehlert,S.; Hansen,A.; Neugebauer,H.; Spicher,S.; Bannwarth,C.; Grimme,S.
     A generally applicable atomic-charge dependent London dispersion correction
     J. Chem. Phys., 2019 150 154122
     doi.org/10.1063/1.5090222
  6. Caldeweyher,E.; Mewes,J.; Ehlert,S.; Grimme,S.
     Extension and evaluation of the D4 London-dispersion model for periodic systems
     Phys. Chem. Chem. Phys., 2020 22(16)8499-8512
     doi.org/10.1039/D0CP00502A
  7. Wittmann,L.; Gordiy,I.; Friede,M.; Helmich-Paris,B.; Grimme,S.; Hansen,A.; Bursch,M.
     Extension of the D3 and D4 London Dispersion Corrections to the full Actinides Series
     Phys. Chem. Chem. Phys., 2024 26(32)21379-21394
     doi.org/https://doi.org/10.1039/D4CP01514B 

List of suggested additional citations. These are papers that are important in the 'surrounding' of 
of this run, or papers that preceded the highly important papers. If you like your results we are grateful for a citation.

  1. Neese,F.
     The ORCA program system
     WIRES Comput. Molec. Sci., 2012 2(1)73-78
     doi.org/10.1002/wcms.81
  2. Neese,F.
     Software update: the ORCA program system, version 4.0
     WIRES Comput. Molec. Sci., 2018 8(1)1-6
     doi.org/10.1002/wcms.1327
  3. Neese,F.; Wennmohs,F.; Becker,U.; Riplinger,C.
     The ORCA quantum chemistry program package
     J. Chem. Phys., 2020 152 Art. No. L224108
     doi.org/10.1063/5.0004608

List of optional additional citations

  1. Neese,F.
     Approximate second-order SCF convergence for spin unrestricted wavefunctions
     Chem. Phys. Lett., 2000 325(1-3)93-98
     doi.org/10.1016/s0009-2614(00)00662-x

Timings for individual modules:

Sum of individual times          ...      818.541 sec (=  13.642 min)
Startup calculation              ...       38.417 sec (=   0.640 min)   4.7 %
SCF iterations                   ...      565.546 sec (=   9.426 min)  69.1 %
Property calculations            ...        1.114 sec (=   0.019 min)   0.1 %
SCF Gradient evaluation          ...      212.331 sec (=   3.539 min)  25.9 %
Geometry relaxation              ...        1.134 sec (=   0.019 min)   0.1 %
                             ****ORCA TERMINATED NORMALLY****
TOTAL RUN TIME: 0 days 0 hours 13 minutes 41 seconds 931 msec
