 Entering Gaussian System, Link 0=g09
 Input=ZnMe2-mp2.gjf
 Output=ZnMe2-mp2.log
 Initial command:
 /opt/g09/l1.exe "/opt/scr/Gau-89230.inp" -scrdir="/opt/scr/"
 Entering Link 1 = /opt/g09/l1.exe PID=     89231.
  
 Copyright (c) 1988,1990,1992,1993,1995,1998,2003,2009,2015,
            Gaussian, Inc.  All Rights Reserved.
  
 This is part of the Gaussian(R) 09 program.  It is based on
 the Gaussian(R) 03 system (copyright 2003, Gaussian, Inc.),
 the Gaussian(R) 98 system (copyright 1998, Gaussian, Inc.),
 the Gaussian(R) 94 system (copyright 1995, Gaussian, Inc.),
 the Gaussian 92(TM) system (copyright 1992, Gaussian, Inc.),
 the Gaussian 90(TM) system (copyright 1990, Gaussian, Inc.),
 the Gaussian 88(TM) system (copyright 1988, Gaussian, Inc.),
 the Gaussian 86(TM) system (copyright 1986, Carnegie Mellon
 University), and the Gaussian 82(TM) system (copyright 1983,
 Carnegie Mellon University). Gaussian is a federally registered
 trademark of Gaussian, Inc.
  
 This software contains proprietary and confidential information,
 including trade secrets, belonging to Gaussian, Inc.
  
 This software is provided under written license and may be
 used, copied, transmitted, or stored only in accord with that
 written license.
  
 The following legend is applicable only to US Government
 contracts under FAR:
  
                    RESTRICTED RIGHTS LEGEND
  
 Use, reproduction and disclosure by the US Government is
 subject to restrictions as set forth in subparagraphs (a)
 and (c) of the Commercial Computer Software - Restricted
 Rights clause in FAR 52.227-19.
  
 Gaussian, Inc.
 340 Quinnipiac St., Bldg. 40, Wallingford CT 06492
  
  
 ---------------------------------------------------------------
 Warning -- This program may not be used in any manner that
 competes with the business of Gaussian, Inc. or will provide
 assistance to any competitor of Gaussian, Inc.  The licensee
 of this program is prohibited from giving any competitor of
 Gaussian, Inc. access to this program.  By using this program,
 the user acknowledges that Gaussian, Inc. is engaged in the
 business of creating and licensing software in the field of
 computational chemistry and represents and warrants to the
 licensee that it is not a competitor of Gaussian, Inc. and that
 it will not use this program in any manner prohibited above.
 ---------------------------------------------------------------
  

 Cite this work as:
 Gaussian 09, Revision E.01,
 M. J. Frisch, G. W. Trucks, H. B. Schlegel, G. E. Scuseria, 
 M. A. Robb, J. R. Cheeseman, G. Scalmani, V. Barone, B. Mennucci, 
 G. A. Petersson, H. Nakatsuji, M. Caricato, X. Li, H. P. Hratchian, 
 A. F. Izmaylov, J. Bloino, G. Zheng, J. L. Sonnenberg, M. Hada, 
 M. Ehara, K. Toyota, R. Fukuda, J. Hasegawa, M. Ishida, T. Nakajima, 
 Y. Honda, O. Kitao, H. Nakai, T. Vreven, J. A. Montgomery, Jr., 
 J. E. Peralta, F. Ogliaro, M. Bearpark, J. J. Heyd, E. Brothers, 
 K. N. Kudin, V. N. Staroverov, T. Keith, R. Kobayashi, J. Normand, 
 K. Raghavachari, A. Rendell, J. C. Burant, S. S. Iyengar, J. Tomasi, 
 M. Cossi, N. Rega, J. M. Millam, M. Klene, J. E. Knox, J. B. Cross, 
 V. Bakken, C. Adamo, J. Jaramillo, R. Gomperts, R. E. Stratmann, 
 O. Yazyev, A. J. Austin, R. Cammi, C. Pomelli, J. W. Ochterski, 
 R. L. Martin, K. Morokuma, V. G. Zakrzewski, G. A. Voth, 
 P. Salvador, J. J. Dannenberg, S. Dapprich, A. D. Daniels, 
 O. Farkas, J. B. Foresman, J. V. Ortiz, J. Cioslowski, 
 and D. J. Fox, Gaussian, Inc., Wallingford CT, 2013.
 
 ******************************************
 Gaussian 09:  ES64L-G09RevE.01 30-Nov-2015
                26-Jan-2025 
 ******************************************
 %chk=ZnMe2-mp2.chk
 %mem=12GB
 %nprocshared=2
 Will use up to    2 processors via shared memory.
 ---------------------
 #p opt mp2/6-31g(d,p)
 ---------------------
 1/18=20,19=15,38=1/1,3;
 2/9=110,12=2,17=6,18=5,40=1/2;
 3/5=1,6=6,7=101,11=9,16=1,25=1,30=1,71=1/1,2,3;
 4//1;
 5/5=2,38=5/2;
 8/6=4,10=2/1;
 9/15=2,16=-3/6;
 10/5=1/2;
 6/7=2,8=2,9=2,10=2/1;
 7/12=2/1,2,3,16;
 1/18=20,19=15/3(2);
 2/9=110/2;
 99//99;
 2/9=110/2;
 3/5=1,6=6,7=101,11=9,16=1,25=1,30=1,71=1/1,2,3;
 4/5=5,16=3,69=1/1;
 5/5=2,38=5/2;
 8/6=4,10=2/1;
 9/15=2,16=-3/6;
 10/5=1/2;
 7/12=2/1,2,3,16;
 1/18=20,19=15/3(-8);
 2/9=110/2;
 6/7=2,8=2,9=2,10=2/1;
 99//99;
 Leave Link    1 at Sun Jan 26 12:17:19 2025, MaxMem=  1610612736 cpu:         0.0
 (Enter /opt/g09/l101.exe)
 --------------------
 ZnPc geom mp2/6-31dp
 --------------------
 Symbolic Z-matrix:
 Charge =  0 Multiplicity = 1
 Zn                    0.        0.        0. 
 C                    -2.02      0.        0. 
 H                    -2.37667   0.47361   0.89072 
 H                    -2.37667   0.53459  -0.85552 
 H                    -2.37667  -1.00819  -0.03521 
 C                     2.02      0.        0. 
 H                     2.37667  -0.53293   0.85655 
 H                     2.37667  -0.47533  -0.8898 
 H                     2.37667   1.00826   0.03325 
 
 NAtoms=      9 NQM=        9 NQMF=       0 NMMI=      0 NMMIF=      0
                NMic=       0 NMicF=      0.
                    Isotopes and Nuclear Properties:
 (Nuclear quadrupole moments (NQMom) in fm**2, nuclear magnetic moments (NMagM)
  in nuclear magnetons)

  Atom         1           2           3           4           5           6           7           8           9
 IAtWgt=          64          12           1           1           1          12           1           1           1
 AtmWgt=  63.9291454  12.0000000   1.0078250   1.0078250   1.0078250  12.0000000   1.0078250   1.0078250   1.0078250
 NucSpn=           0           0           1           1           1           0           1           1           1
 AtZEff=   0.0000000   0.0000000   0.0000000   0.0000000   0.0000000   0.0000000   0.0000000   0.0000000   0.0000000
 NQMom=    0.0000000   0.0000000   0.0000000   0.0000000   0.0000000   0.0000000   0.0000000   0.0000000   0.0000000
 NMagM=    0.0000000   0.0000000   2.7928460   2.7928460   2.7928460   0.0000000   2.7928460   2.7928460   2.7928460
 AtZNuc=  30.0000000   6.0000000   1.0000000   1.0000000   1.0000000   6.0000000   1.0000000   1.0000000   1.0000000
 Leave Link  101 at Sun Jan 26 12:17:20 2025, MaxMem=  1610612736 cpu:         0.8
 (Enter /opt/g09/l103.exe)

 GradGradGradGradGradGradGradGradGradGradGradGradGradGradGradGradGradGrad
 Berny optimization.
 Initialization pass.
                           ----------------------------
                           !    Initial Parameters    !
                           ! (Angstroms and Degrees)  !
 --------------------------                            --------------------------
 ! Name  Definition              Value          Derivative Info.                !
 --------------------------------------------------------------------------------
 ! R1    R(1,2)                  2.02           estimate D2E/DX2                !
 ! R2    R(1,6)                  2.02           estimate D2E/DX2                !
 ! R3    R(2,3)                  1.07           estimate D2E/DX2                !
 ! R4    R(2,4)                  1.07           estimate D2E/DX2                !
 ! R5    R(2,5)                  1.07           estimate D2E/DX2                !
 ! R6    R(6,7)                  1.07           estimate D2E/DX2                !
 ! R7    R(6,8)                  1.07           estimate D2E/DX2                !
 ! R8    R(6,9)                  1.07           estimate D2E/DX2                !
 ! A1    A(1,2,3)              109.4712         estimate D2E/DX2                !
 ! A2    A(1,2,4)              109.4712         estimate D2E/DX2                !
 ! A3    A(1,2,5)              109.4712         estimate D2E/DX2                !
 ! A4    A(3,2,4)              109.4713         estimate D2E/DX2                !
 ! A5    A(3,2,5)              109.4712         estimate D2E/DX2                !
 ! A6    A(4,2,5)              109.4712         estimate D2E/DX2                !
 ! A7    A(1,6,7)              109.4712         estimate D2E/DX2                !
 ! A8    A(1,6,8)              109.4712         estimate D2E/DX2                !
 ! A9    A(1,6,9)              109.4712         estimate D2E/DX2                !
 ! A10   A(7,6,8)              109.4713         estimate D2E/DX2                !
 ! A11   A(7,6,9)              109.4712         estimate D2E/DX2                !
 ! A12   A(8,6,9)              109.4712         estimate D2E/DX2                !
 ! A13   L(2,1,6,3,-1)         180.0            estimate D2E/DX2                !
 ! A14   L(2,1,6,3,-2)         180.0            estimate D2E/DX2                !
 ! D1    D(3,2,6,7)             59.8889         estimate D2E/DX2                !
 ! D2    D(3,2,6,8)            179.8889         estimate D2E/DX2                !
 ! D3    D(3,2,6,9)            -60.1111         estimate D2E/DX2                !
 ! D4    D(4,2,6,7)            179.8889         estimate D2E/DX2                !
 ! D5    D(4,2,6,8)            -60.1111         estimate D2E/DX2                !
 ! D6    D(4,2,6,9)             59.8889         estimate D2E/DX2                !
 ! D7    D(5,2,6,7)            -60.1111         estimate D2E/DX2                !
 ! D8    D(5,2,6,8)             59.8889         estimate D2E/DX2                !
 ! D9    D(5,2,6,9)            179.8889         estimate D2E/DX2                !
 --------------------------------------------------------------------------------
 Trust Radius=3.00D-01 FncErr=1.00D-07 GrdErr=1.00D-07
 Number of steps in this run=     41 maximum allowed number of steps=    100.
 GradGradGradGradGradGradGradGradGradGradGradGradGradGradGradGradGradGrad

 Leave Link  103 at Sun Jan 26 12:17:20 2025, MaxMem=  1610612736 cpu:         0.0
 (Enter /opt/g09/l202.exe)
                          Input orientation:                          
 ---------------------------------------------------------------------
 Center     Atomic      Atomic             Coordinates (Angstroms)
 Number     Number       Type             X           Y           Z
 ---------------------------------------------------------------------
      1         30           0        0.000000    0.000000    0.000000
      2          6           0       -2.020000    0.000000    0.000000
      3          1           0       -2.376666    0.473606    0.890723
      4          1           0       -2.376666    0.534586   -0.855516
      5          1           0       -2.376667   -1.008191   -0.035207
      6          6           0        2.020000    0.000000    0.000000
      7          1           0        2.376666   -0.532926    0.856551
      8          1           0        2.376666   -0.475332   -0.889803
      9          1           0        2.376667    1.008257    0.033252
 ---------------------------------------------------------------------
                    Distance matrix (angstroms):
                    1          2          3          4          5
     1  Zn   0.000000
     2  C    2.020000   0.000000
     3  H    2.581905   1.070000   0.000000
     4  H    2.581905   1.070000   1.747303   0.000000
     5  H    2.581905   1.070000   1.747303   1.747303   0.000000
     6  C    2.020000   4.040000   4.510916   4.510916   4.510917
     7  H    2.581905   4.510916   4.858852   5.163809   4.859556
     8  H    2.581905   4.510916   5.163809   4.859556   4.858853
     9  H    2.581905   4.510917   4.859556   4.858853   5.163810
                    6          7          8          9
     6  C    0.000000
     7  H    1.070000   0.000000
     8  H    1.070000   1.747303   0.000000
     9  H    1.070000   1.747303   1.747303   0.000000
 Stoichiometry    C2H6Zn
 Framework group  D3[O(Zn),C3(C.C),X(H6)]
 Deg. of freedom     4
 Full point group                 D3      NOp   6
 Largest Abelian subgroup         C2      NOp   2
 Largest concise Abelian subgroup C2      NOp   2
                         Standard orientation:                         
 ---------------------------------------------------------------------
 Center     Atomic      Atomic             Coordinates (Angstroms)
 Number     Number       Type             X           Y           Z
 ---------------------------------------------------------------------
      1         30           0        0.000000    0.000000    0.000000
      2          6           0        0.000000   -0.000000    2.020000
      3          1           0       -0.503556    0.874140    2.376666
      4          1           0       -0.505250   -0.873162    2.376666
      5          1           0        1.008805   -0.000978    2.376666
      6          6           0        0.000000   -0.000000   -2.020000
      7          1           0        0.503556    0.874140   -2.376666
      8          1           0        0.505250   -0.873162   -2.376666
      9          1           0       -1.008805   -0.000978   -2.376666
 ---------------------------------------------------------------------
 Rotational constants (GHZ):     82.1231614      3.7390332      3.7390332
 Leave Link  202 at Sun Jan 26 12:17:20 2025, MaxMem=  1610612736 cpu:         0.0
 (Enter /opt/g09/l301.exe)
 Standard basis: 6-31G(d,p) (6D, 7F)
 Ernie: Thresh=  0.10000D-02 Tol=  0.10000D-05 Strict=F.
 There are    51 symmetry adapted cartesian basis functions of A   symmetry.
 There are    48 symmetry adapted cartesian basis functions of B   symmetry.
 There are    50 symmetry adapted basis functions of A   symmetry.
 There are    46 symmetry adapted basis functions of B   symmetry.
    96 basis functions,   202 primitive gaussians,    99 cartesian basis functions
    24 alpha electrons       24 beta electrons
       nuclear repulsion energy       160.7215885360 Hartrees.
 IExCor=    0 DFT=F Ex=HF Corr=None ExCW=0 ScaHFX=  1.000000
 ScaDFX=  1.000000  1.000000  1.000000  1.000000 ScalE2=  1.000000  1.000000
 IRadAn=      0 IRanWt=     -1 IRanGd=            0 ICorTp=0 IEmpDi=  4
 NAtoms=    9 NActive=    9 NUniq=    3 SFac= 4.00D+00 NAtFMM=   60 NAOKFM=F Big=F
 Integral buffers will be    131072 words long.
 Raffenetti 1 integral format.
 Two-electron integral symmetry is turned on.
 Leave Link  301 at Sun Jan 26 12:17:20 2025, MaxMem=  1610612736 cpu:         0.1
 (Enter /opt/g09/l302.exe)
 NPDir=0 NMtPBC=     1 NCelOv=     1 NCel=       1 NClECP=     1 NCelD=      1
         NCelK=      1 NCelE2=     1 NClLst=     1 CellRange=     0.0.
 One-electron integrals computed using PRISM.
 One-electron integral symmetry used in STVInt
 NBasis=    96 RedAO= T EigKep=  1.53D-03  NBF=    50    46
 NBsUse=    96 1.00D-06 EigRej= -1.00D+00 NBFU=    50    46
 Leave Link  302 at Sun Jan 26 12:17:20 2025, MaxMem=  1610612736 cpu:         0.2
 (Enter /opt/g09/l303.exe)
 DipDrv:  MaxL=1.
 Leave Link  303 at Sun Jan 26 12:17:20 2025, MaxMem=  1610612736 cpu:         0.1
 (Enter /opt/g09/l401.exe)
 ExpMin= 4.93D-02 ExpMax= 8.24D+04 ExpMxC= 1.24D+04 IAcc=2 IRadAn=         4 AccDes= 0.00D+00
 Harris functional with IExCor=  205 and IRadAn=       4 diagonalized for initial guess.
 HarFok:  IExCor=  205 AccDes= 0.00D+00 IRadAn=         4 IDoV= 1 UseB2=F ITyADJ=14
 ICtDFT=  3500011 ScaDFX=  1.000000  1.000000  1.000000  1.000000
 FoFCou: FMM=F IPFlag=           0 FMFlag=      100000 FMFlg1=           0
         NFxFlg=           0 DoJE=T BraDBF=F KetDBF=T FulRan=T
         wScrn=  0.000000 ICntrl=     500 IOpCl=  0 I1Cent=   200000004 NGrid=           0
         NMat0=    1 NMatS0=      1 NMatT0=    0 NMatD0=    1 NMtDS0=    0 NMtDT0=    0
 Petite list used in FoFCou.
 Harris En= -1856.44738783563    
 JPrj=0 DoOrth=F DoCkMO=F.
 Initial guess orbital symmetries:
       Occupied  (A1) (A1) (A2) (E) (E) (A2) (A1) (A1) (A2) (E)
                 (E) (A1) (A2) (E) (E) (E) (E) (A1) (A2) (E) (E)
                 (E) (E) (A1)
       Virtual   (A1) (E) (E) (A2) (A1) (E) (E) (E) (E) (A1) (E)
                 (E) (A2) (A2) (E) (E) (A2) (A1) (E) (E) (E) (E)
                 (E) (E) (A1) (A2) (A1) (E) (E) (A1) (E) (E) (A2)
                 (A1) (A2) (E) (E) (A1) (A2) (E) (E) (E) (E) (E)
                 (E) (E) (E) (E) (E) (A1) (A2) (E) (E) (E) (E)
                 (A2) (A1) (A1) (A2) (E) (E) (E) (E) (A1) (A2)
                 (E) (E) (E) (E) (A1) (A2) (A1)
 The electronic state of the initial guess is 1-A1.
 Leave Link  401 at Sun Jan 26 12:17:20 2025, MaxMem=  1610612736 cpu:         0.3
 (Enter /opt/g09/l502.exe)
 Closed shell SCF:
 Using DIIS extrapolation, IDIIS=  1040.
 Integral symmetry usage will be decided dynamically.
 Keep R1 ints in memory in symmetry-blocked form, NReq=16324047.
 IVT=       49559 IEndB=       49559 NGot=  1610612736 MDV=  1605130282
 LenX=  1605130282 LenY=  1605120040
 Requested convergence on RMS density matrix=1.00D-08 within 128 cycles.
 Requested convergence on MAX density matrix=1.00D-06.
 Requested convergence on             energy=1.00D-06.
 No special actions if energy rises.
 FoFCou: FMM=F IPFlag=           0 FMFlag=           0 FMFlg1=           0
         NFxFlg=           0 DoJE=F BraDBF=F KetDBF=F FulRan=T
         wScrn=  0.000000 ICntrl=     600 IOpCl=  0 I1Cent=           0 NGrid=           0
         NMat0=    1 NMatS0=   4656 NMatT0=    0 NMatD0=    1 NMtDS0=    0 NMtDT0=    0
 Petite list used in FoFCou.

 Cycle   1  Pass 1  IDiag  1:
 E= -1856.28621269972    
 DIIS: error= 2.07D-01 at cycle   1 NSaved=   1.
 NSaved= 1 IEnMin= 1 EnMin= -1856.28621269972     IErMin= 1 ErrMin= 2.07D-01
 ErrMax= 2.07D-01  0.00D+00 EMaxC= 1.00D-01 BMatC= 8.95D-01 BMatP= 8.95D-01
 IDIUse=3 WtCom= 0.00D+00 WtEn= 1.00D+00
 Coeff-Com:  0.100D+01
 Coeff-En:   0.100D+01
 Coeff:      0.100D+01
 Gap=     0.791 Goal=   None    Shift=    0.000
 GapD=    0.791 DampG=2.000 DampE=0.125 DampFc=0.2500 IDamp=-1.
 Damping current iteration by 2.50D-01
 RMSDP=8.22D-03 MaxDP=1.75D-01              OVMax= 1.91D-01

 Cycle   2  Pass 1  IDiag  1:
 E= -1856.42190685975     Delta-E=       -0.135694160022 Rises=F Damp=T
 DIIS: error= 1.53D-01 at cycle   2 NSaved=   2.
 NSaved= 2 IEnMin= 2 EnMin= -1856.42190685975     IErMin= 2 ErrMin= 1.53D-01
 ErrMax= 1.53D-01  0.00D+00 EMaxC= 1.00D-01 BMatC= 4.01D-01 BMatP= 8.95D-01
 IDIUse=3 WtCom= 0.00D+00 WtEn= 1.00D+00
 Coeff-Com: -0.170D+01 0.270D+01
 Coeff-En:   0.000D+00 0.100D+01
 Coeff:      0.000D+00 0.100D+01
 Gap=     0.345 Goal=   None    Shift=    0.000
 RMSDP=5.30D-03 MaxDP=1.15D-01 DE=-1.36D-01 OVMax= 3.08D-02

 Cycle   3  Pass 1  IDiag  1:
 E= -1856.66023998654     Delta-E=       -0.238333126791 Rises=F Damp=F
 DIIS: error= 4.58D-02 at cycle   3 NSaved=   3.
 NSaved= 3 IEnMin= 3 EnMin= -1856.66023998654     IErMin= 3 ErrMin= 4.58D-02
 ErrMax= 4.58D-02  0.00D+00 EMaxC= 1.00D-01 BMatC= 8.09D-02 BMatP= 4.01D-01
 IDIUse=3 WtCom= 5.42D-01 WtEn= 4.58D-01
 Coeff-Com:  0.317D+01-0.419D+01 0.203D+01
 Coeff-En:   0.000D+00 0.000D+00 0.100D+01
 Coeff:      0.172D+01-0.227D+01 0.156D+01
 Gap=     0.448 Goal=   None    Shift=    0.000
 RMSDP=2.16D-03 MaxDP=4.13D-02 DE=-2.38D-01 OVMax= 6.78D-02

 Cycle   4  Pass 1  IDiag  1:
 E= -1856.70099534467     Delta-E=       -0.040755358132 Rises=F Damp=F
 DIIS: error= 1.89D-02 at cycle   4 NSaved=   4.
 NSaved= 4 IEnMin= 4 EnMin= -1856.70099534467     IErMin= 4 ErrMin= 1.89D-02
 ErrMax= 1.89D-02  0.00D+00 EMaxC= 1.00D-01 BMatC= 1.23D-02 BMatP= 8.09D-02
 IDIUse=3 WtCom= 8.11D-01 WtEn= 1.89D-01
 Coeff-Com: -0.530D+00 0.706D+00-0.243D-02 0.827D+00
 Coeff-En:   0.000D+00 0.000D+00 0.000D+00 0.100D+01
 Coeff:     -0.430D+00 0.573D+00-0.197D-02 0.859D+00
 Gap=     0.427 Goal=   None    Shift=    0.000
 RMSDP=7.49D-04 MaxDP=1.32D-02 DE=-4.08D-02 OVMax= 1.68D-02

 Cycle   5  Pass 1  IDiag  1:
 E= -1856.70683038739     Delta-E=       -0.005835042717 Rises=F Damp=F
 DIIS: error= 5.37D-03 at cycle   5 NSaved=   5.
 NSaved= 5 IEnMin= 5 EnMin= -1856.70683038739     IErMin= 5 ErrMin= 5.37D-03
 ErrMax= 5.37D-03  0.00D+00 EMaxC= 1.00D-01 BMatC= 6.48D-04 BMatP= 1.23D-02
 IDIUse=3 WtCom= 9.46D-01 WtEn= 5.37D-02
 Coeff-Com: -0.126D+00 0.164D+00 0.118D-02 0.341D+00 0.620D+00
 Coeff-En:   0.000D+00 0.000D+00 0.000D+00 0.000D+00 0.100D+01
 Coeff:     -0.119D+00 0.155D+00 0.112D-02 0.323D+00 0.640D+00
 Gap=     0.428 Goal=   None    Shift=    0.000
 RMSDP=1.22D-04 MaxDP=2.95D-03 DE=-5.84D-03 OVMax= 2.64D-03

 Cycle   6  Pass 1  IDiag  1:
 E= -1856.70706954038     Delta-E=       -0.000239152997 Rises=F Damp=F
 DIIS: error= 5.15D-04 at cycle   6 NSaved=   6.
 NSaved= 6 IEnMin= 6 EnMin= -1856.70706954038     IErMin= 6 ErrMin= 5.15D-04
 ErrMax= 5.15D-04  0.00D+00 EMaxC= 1.00D-01 BMatC= 7.56D-06 BMatP= 6.48D-04
 IDIUse=3 WtCom= 9.95D-01 WtEn= 5.15D-03
 Coeff-Com:  0.247D-01-0.317D-01-0.310D-01-0.146D+00-0.168D+00 0.135D+01
 Coeff-En:   0.000D+00 0.000D+00 0.000D+00 0.000D+00 0.000D+00 0.100D+01
 Coeff:      0.246D-01-0.316D-01-0.308D-01-0.145D+00-0.167D+00 0.135D+01
 Gap=     0.428 Goal=   None    Shift=    0.000
 RMSDP=8.20D-05 MaxDP=1.68D-03 DE=-2.39D-04 OVMax= 2.76D-03

 Cycle   7  Pass 1  IDiag  1:
 E= -1856.70709029187     Delta-E=       -0.000020751484 Rises=F Damp=F
 DIIS: error= 1.11D-04 at cycle   7 NSaved=   7.
 NSaved= 7 IEnMin= 7 EnMin= -1856.70709029187     IErMin= 7 ErrMin= 1.11D-04
 ErrMax= 1.11D-04  0.00D+00 EMaxC= 1.00D-01 BMatC= 3.25D-07 BMatP= 7.56D-06
 IDIUse=3 WtCom= 9.99D-01 WtEn= 1.11D-03
 Coeff-Com: -0.765D-03 0.856D-03 0.115D-01 0.291D-01 0.202D-02-0.373D+00
 Coeff-Com:  0.133D+01
 Coeff-En:   0.000D+00 0.000D+00 0.000D+00 0.000D+00 0.000D+00 0.000D+00
 Coeff-En:   0.100D+01
 Coeff:     -0.764D-03 0.855D-03 0.115D-01 0.291D-01 0.202D-02-0.372D+00
 Coeff:      0.133D+01
 Gap=     0.428 Goal=   None    Shift=    0.000
 RMSDP=1.38D-05 MaxDP=2.75D-04 DE=-2.08D-05 OVMax= 4.49D-04

 Cycle   8  Pass 1  IDiag  1:
 E= -1856.70709092116     Delta-E=       -0.000000629290 Rises=F Damp=F
 DIIS: error= 1.35D-05 at cycle   8 NSaved=   8.
 NSaved= 8 IEnMin= 8 EnMin= -1856.70709092116     IErMin= 8 ErrMin= 1.35D-05
 ErrMax= 1.35D-05  0.00D+00 EMaxC= 1.00D-01 BMatC= 5.31D-09 BMatP= 3.25D-07
 IDIUse=1 WtCom= 1.00D+00 WtEn= 0.00D+00
 Coeff-Com: -0.125D-03 0.168D-03-0.122D-02-0.202D-02 0.469D-02 0.362D-01
 Coeff-Com: -0.252D+00 0.121D+01
 Coeff:     -0.125D-03 0.168D-03-0.122D-02-0.202D-02 0.469D-02 0.362D-01
 Coeff:     -0.252D+00 0.121D+01
 Gap=     0.428 Goal=   None    Shift=    0.000
 RMSDP=1.56D-06 MaxDP=2.85D-05 DE=-6.29D-07 OVMax= 3.77D-05

 Cycle   9  Pass 1  IDiag  1:
 E= -1856.70709093095     Delta-E=       -0.000000009788 Rises=F Damp=F
 DIIS: error= 1.63D-06 at cycle   9 NSaved=   9.
 NSaved= 9 IEnMin= 9 EnMin= -1856.70709093095     IErMin= 9 ErrMin= 1.63D-06
 ErrMax= 1.63D-06  0.00D+00 EMaxC= 1.00D-01 BMatC= 1.06D-10 BMatP= 5.31D-09
 IDIUse=1 WtCom= 1.00D+00 WtEn= 0.00D+00
 Coeff-Com: -0.861D-04 0.117D-03-0.251D-03-0.435D-03-0.357D-04 0.763D-02
 Coeff-Com: -0.301D-01-0.122D-01 0.104D+01
 Coeff:     -0.861D-04 0.117D-03-0.251D-03-0.435D-03-0.357D-04 0.763D-02
 Coeff:     -0.301D-01-0.122D-01 0.104D+01
 Gap=     0.428 Goal=   None    Shift=    0.000
 RMSDP=2.49D-07 MaxDP=5.21D-06 DE=-9.79D-09 OVMax= 5.31D-06

 Cycle  10  Pass 1  IDiag  1:
 E= -1856.70709093114     Delta-E=       -0.000000000198 Rises=F Damp=F
 DIIS: error= 2.96D-07 at cycle  10 NSaved=  10.
 NSaved=10 IEnMin=10 EnMin= -1856.70709093114     IErMin=10 ErrMin= 2.96D-07
 ErrMax= 2.96D-07  0.00D+00 EMaxC= 1.00D-01 BMatC= 4.72D-12 BMatP= 1.06D-10
 IDIUse=1 WtCom= 1.00D+00 WtEn= 0.00D+00
 Coeff-Com: -0.162D-04 0.211D-04 0.688D-04 0.155D-03-0.201D-03-0.244D-02
 Coeff-Com:  0.126D-01-0.296D-01-0.197D+00 0.122D+01
 Coeff:     -0.162D-04 0.211D-04 0.688D-04 0.155D-03-0.201D-03-0.244D-02
 Coeff:      0.126D-01-0.296D-01-0.197D+00 0.122D+01
 Gap=     0.428 Goal=   None    Shift=    0.000
 RMSDP=6.57D-08 MaxDP=1.90D-06 DE=-1.98D-10 OVMax= 1.53D-06

 Cycle  11  Pass 1  IDiag  1:
 E= -1856.70709093116     Delta-E=       -0.000000000019 Rises=F Damp=F
 DIIS: error= 4.25D-08 at cycle  11 NSaved=  11.
 NSaved=11 IEnMin=11 EnMin= -1856.70709093116     IErMin=11 ErrMin= 4.25D-08
 ErrMax= 4.25D-08  0.00D+00 EMaxC= 1.00D-01 BMatC= 1.17D-13 BMatP= 4.72D-12
 IDIUse=1 WtCom= 1.00D+00 WtEn= 0.00D+00
 Coeff-Com:  0.377D-05-0.498D-05-0.154D-04-0.339D-04 0.532D-04 0.561D-03
 Coeff-Com: -0.321D-02 0.811D-02 0.501D-01-0.409D+00 0.135D+01
 Coeff:      0.377D-05-0.498D-05-0.154D-04-0.339D-04 0.532D-04 0.561D-03
 Coeff:     -0.321D-02 0.811D-02 0.501D-01-0.409D+00 0.135D+01
 Gap=     0.428 Goal=   None    Shift=    0.000
 RMSDP=1.21D-08 MaxDP=4.62D-07 DE=-1.91D-11 OVMax= 3.39D-07

 Cycle  12  Pass 1  IDiag  1:
 E= -1856.70709093115     Delta-E=        0.000000000013 Rises=F Damp=F
 DIIS: error= 7.49D-09 at cycle  12 NSaved=  12.
 NSaved=12 IEnMin=11 EnMin= -1856.70709093116     IErMin=12 ErrMin= 7.49D-09
 ErrMax= 7.49D-09  0.00D+00 EMaxC= 1.00D-01 BMatC= 1.66D-15 BMatP= 1.17D-13
 IDIUse=1 WtCom= 1.00D+00 WtEn= 0.00D+00
 Coeff-Com: -0.230D-06 0.312D-06 0.681D-06 0.158D-05-0.215D-05-0.240D-04
 Coeff-Com:  0.174D-03-0.503D-03-0.256D-02 0.315D-01-0.184D+00 0.116D+01
 Coeff:     -0.230D-06 0.312D-06 0.681D-06 0.158D-05-0.215D-05-0.240D-04
 Coeff:      0.174D-03-0.503D-03-0.256D-02 0.315D-01-0.184D+00 0.116D+01
 Gap=     0.428 Goal=   None    Shift=    0.000
 RMSDP=1.61D-09 MaxDP=2.75D-08 DE= 1.32D-11 OVMax= 6.03D-08

 SCF Done:  E(RHF) =  -1856.70709093     A.U. after   12 cycles
            NFock= 12  Conv=0.16D-08     -V/T= 2.0000
 KE= 1.856715511189D+03 PE=-4.766910429405D+03 EE= 8.927662387487D+02
 Leave Link  502 at Sun Jan 26 12:17:21 2025, MaxMem=  1610612736 cpu:         1.7
 (Enter /opt/g09/l801.exe)
 ExpMin= 4.93D-02 ExpMax= 8.24D+04 ExpMxC= 1.24D+04 IAcc=3 IRadAn=         5 AccDes= 0.00D+00
 HarFok:  IExCor=  205 AccDes= 0.00D+00 IRadAn=         5 IDoV=-2 UseB2=F ITyADJ=14
 ICtDFT= 12500011 ScaDFX=  1.000000  1.000000  1.000000  1.000000
 Largest valence mixing into a core orbital is  1.93D-04
 Largest core mixing into a valence orbital is  8.60D-05
 Range of M.O.s used for correlation:    12    96
 NBasis=    96 NAE=    24 NBE=    24 NFC=    11 NFV=     0
 NROrb=     85 NOA=    13 NOB=    13 NVA=    72 NVB=    72

 **** Warning!!: The largest alpha MO coefficient is  0.23856614D+02

 Leave Link  801 at Sun Jan 26 12:17:21 2025, MaxMem=  1610612736 cpu:         0.3
 (Enter /opt/g09/l906.exe)
 Frozen-core derivative calculation, NFC=  11 NFV=   0.
 FulOut=F Deriv=T AODrv=T NAtomX=     9
   MMem=        5446  MDisk=          13 MDiskD=          13
  W3Min=      228096 MinDsk=      370958 NBas6D=          99
 NBas2D=        5121    NTT=        4950    LW2=     3500000
    MDV=  1610482530 MDiskM=       81236 NBas2p=        2986
 Fully direct method using O(ONN) memory.
 IMap=   1   2   3   4   5   6   7   8   9  10  11  12  13  14  15  16  17  18  19  20
 IMap=  21  22  23  24
 JobTyp=1 Pass  1:  I=  12 to  24 NPSUse=  2 ParTrn=T ParDer=T DoDerP=T.
 Spin components of T(2) and E(2):
     alpha-alpha T2 =       0.2036676817D-01 E2=     -0.7961532360D-01
     alpha-beta  T2 =       0.1177032266D+00 E2=     -0.4168382654D+00
     beta-beta   T2 =       0.2036676817D-01 E2=     -0.7961532360D-01
 The integrals were generated   1 times.
 ANorm=    0.1076307002D+01
 E2 =    -0.5760689126D+00 EUMP2 =    -0.18572831598437D+04
 Leave Link  906 at Sun Jan 26 12:17:25 2025, MaxMem=  1610612736 cpu:         7.2
 (Enter /opt/g09/l1002.exe)
 Minotr:  Closed shell wavefunction.
          Computing MP2/KS-MP2 derivatives.
          Using Z-Vector for PSCF gradient.
          Skipping F1 and S1 gradient terms here.
          IDoAtm=111111111
          Frozen-core window.
          Direct CPHF calculation.
          Differentiating once with respect to electric field.
                with respect to dipole field.
          Differentiating once with respect to nuclear coordinates.
          Using symmetry in CPHF.
          Requested convergence is 1.0D-10 RMS, and 1.0D-09 maximum.
          NewPWx=F KeepS1=T KeepF1=T KeepIn=T MapXYZ=F SortEE=F KeepMc=T.
          MDV=    1610612557 using IRadAn=       0.
 Keep R1 ints in memory in symmetry-blocked form, NReq=16275938.
 FoFCou: FMM=F IPFlag=           0 FMFlag=           0 FMFlg1=           0
         NFxFlg=           0 DoJE=F BraDBF=F KetDBF=F FulRan=T
         wScrn=  0.000000 ICntrl=     600 IOpCl=  0 I1Cent=           0 NGrid=           0
         NMat0=    1 NMatS0=   4656 NMatT0=    0 NMatD0=    1 NMtDS0=    0 NMtDT0=    0
 Petite list used in FoFCou.
          Solving linear equations separately, MaxMat=       0.
          There are     1 degrees of freedom in the 1st order CPHF.  IDoFFX=0 NUNeed=     1.
 LinEq1:  Iter=  0 NonCon=     1 RMS=5.03D-03 Max=9.77D-02 NDo=     1
 AX will form     1 AO Fock derivatives at one time.
 LinEq1:  Iter=  1 NonCon=     1 RMS=2.15D-03 Max=3.58D-02 NDo=     1
 LinEq1:  Iter=  2 NonCon=     1 RMS=5.21D-04 Max=8.78D-03 NDo=     1
 LinEq1:  Iter=  3 NonCon=     1 RMS=1.64D-04 Max=1.92D-03 NDo=     1
 LinEq1:  Iter=  4 NonCon=     1 RMS=3.28D-05 Max=5.65D-04 NDo=     1
 LinEq1:  Iter=  5 NonCon=     1 RMS=4.81D-06 Max=7.73D-05 NDo=     1
 LinEq1:  Iter=  6 NonCon=     1 RMS=6.68D-07 Max=9.28D-06 NDo=     1
 LinEq1:  Iter=  7 NonCon=     1 RMS=5.82D-08 Max=7.84D-07 NDo=     1
 LinEq1:  Iter=  8 NonCon=     1 RMS=6.68D-09 Max=1.49D-07 NDo=     1
 LinEq1:  Iter=  9 NonCon=     1 RMS=7.91D-10 Max=9.42D-09 NDo=     1
 LinEq1:  Iter= 10 NonCon=     0 RMS=7.79D-11 Max=7.94D-10 NDo=     1
 Linear equations converged to 1.000D-10 1.000D-09 after    10 iterations.
 End of Minotr F.D. properties file   721 does not exist.
 End of Minotr F.D. properties file   722 does not exist.
 End of Minotr F.D. properties file   788 does not exist.
 Leave Link 1002 at Sun Jan 26 12:17:26 2025, MaxMem=  1610612736 cpu:         1.7
 (Enter /opt/g09/l601.exe)
 Copying SCF densities to generalized density rwf, IOpCl= 0 IROHF=0.

 **********************************************************************

            Population analysis using the SCF density.

 **********************************************************************

 Orbital symmetries:
       Occupied  (A1) (A1) (E) (E) (A2) (A2) (A1) (A1) (E) (E)
                 (A2) (A1) (A2) (E) (E) (E) (E) (A1) (E) (E) (E)
                 (E) (A1) (A2)
       Virtual   (E) (E) (A1) (A2) (E) (E) (A1) (E) (E) (A1) (E)
                 (E) (A2) (A2) (E) (E) (A2) (E) (E) (A1) (E) (E)
                 (E) (E) (A1) (A2) (A1) (A1) (A2) (E) (E) (E) (E)
                 (A1) (A2) (A1) (A2) (E) (E) (E) (E) (E) (E) (E)
                 (E) (E) (E) (A1) (A2) (E) (E) (E) (E) (E) (E)
                 (A2) (A1) (A1) (A2) (E) (E) (E) (E) (A1) (A2)
                 (E) (E) (E) (E) (A1) (A2) (A1)
 The electronic state is 1-A1.
 Alpha  occ. eigenvalues -- -353.28616 -44.36634 -38.93417 -38.93417 -38.93122
 Alpha  occ. eigenvalues --  -11.17587 -11.17586  -5.62537  -3.83135  -3.83135
 Alpha  occ. eigenvalues --   -3.82632  -0.90750  -0.89658  -0.75813  -0.75813
 Alpha  occ. eigenvalues --   -0.75279  -0.75279  -0.73274  -0.52961  -0.52961
 Alpha  occ. eigenvalues --   -0.52286  -0.52286  -0.40871  -0.34071
 Alpha virt. eigenvalues --    0.08764   0.08764   0.11185   0.17024   0.29203
 Alpha virt. eigenvalues --    0.29203   0.31657   0.34532   0.34532   0.36774
 Alpha virt. eigenvalues --    0.41545   0.41545   0.46955   0.67059   0.74227
 Alpha virt. eigenvalues --    0.74227   0.86582   0.87170   0.87170   0.88737
 Alpha virt. eigenvalues --    1.17959   1.17959   1.18392   1.18392   1.25485
 Alpha virt. eigenvalues --    1.34633   1.36750   1.56236   1.66562   1.69636
 Alpha virt. eigenvalues --    1.69636   1.72648   1.72648   2.05973   2.15245
 Alpha virt. eigenvalues --    2.37886   2.37886   2.38306   2.38306   2.45493
 Alpha virt. eigenvalues --    2.45493   2.48190   2.48190   2.53607   2.53607
 Alpha virt. eigenvalues --    2.54386   2.54386   2.64958   2.65013   2.66810
 Alpha virt. eigenvalues --    2.66810   2.79654   2.79654   2.92843   2.92843
 Alpha virt. eigenvalues --    2.94171   2.98373   3.07670   3.18113   3.22475
 Alpha virt. eigenvalues --    3.22475   3.25117   3.25117   3.66313   3.71619
 Alpha virt. eigenvalues --    3.87352   3.87352   3.87988   3.87988   4.84200
 Alpha virt. eigenvalues --    4.93097  48.55148
          Condensed to atoms (all electrons):
               1          2          3          4          5          6
     1  Zn  28.701168   0.362974  -0.028854  -0.028854  -0.028854   0.362974
     2  C    0.362974   5.198686   0.386543   0.386543   0.386543  -0.004061
     3  H   -0.028854   0.386543   0.580890  -0.026742  -0.026742   0.000086
     4  H   -0.028854   0.386543  -0.026742   0.580890  -0.026742   0.000086
     5  H   -0.028854   0.386543  -0.026742  -0.026742   0.580890   0.000086
     6  C    0.362974  -0.004061   0.000086   0.000086   0.000086   5.198686
     7  H   -0.028854   0.000086  -0.000006   0.000003  -0.000006   0.386543
     8  H   -0.028854   0.000086   0.000003  -0.000006  -0.000006   0.386543
     9  H   -0.028854   0.000086  -0.000006  -0.000006   0.000003   0.386543
               7          8          9
     1  Zn  -0.028854  -0.028854  -0.028854
     2  C    0.000086   0.000086   0.000086
     3  H   -0.000006   0.000003  -0.000006
     4  H    0.000003  -0.000006  -0.000006
     5  H   -0.000006  -0.000006   0.000003
     6  C    0.386543   0.386543   0.386543
     7  H    0.580890  -0.026742  -0.026742
     8  H   -0.026742   0.580890  -0.026742
     9  H   -0.026742  -0.026742   0.580890
 Mulliken charges:
               1
     1  Zn   0.746006
     2  C   -0.717485
     3  H    0.114827
     4  H    0.114827
     5  H    0.114827
     6  C   -0.717485
     7  H    0.114827
     8  H    0.114827
     9  H    0.114827
 Sum of Mulliken charges =   0.00000
 Mulliken charges with hydrogens summed into heavy atoms:
               1
     1  Zn   0.746006
     2  C   -0.373003
     6  C   -0.373003
 Electronic spatial extent (au):  <R**2>=            385.5614
 Charge=             -0.0000 electrons
 Dipole moment (field-independent basis, Debye):
    X=             -0.0000    Y=              0.0000    Z=              0.0000  Tot=              0.0000
 Quadrupole moment (field-independent basis, Debye-Ang):
   XX=            -27.1777   YY=            -27.1777   ZZ=            -36.9343
   XY=              0.0000   XZ=              0.0000   YZ=             -0.0000
 Traceless Quadrupole moment (field-independent basis, Debye-Ang):
   XX=              3.2522   YY=              3.2522   ZZ=             -6.5044
   XY=              0.0000   XZ=              0.0000   YZ=             -0.0000
 Octapole moment (field-independent basis, Debye-Ang**2):
  XXX=             -0.0000  YYY=              0.0028  ZZZ=             -0.0000  XYY=             -0.0000
  XXY=             -0.0028  XXZ=             -0.0000  XZZ=             -0.0000  YZZ=              0.0000
  YYZ=              0.0000  XYZ=              0.0000
 Hexadecapole moment (field-independent basis, Debye-Ang**3):
 XXXX=            -41.1300 YYYY=            -41.1300 ZZZZ=           -524.6147 XXXY=              0.0000
 XXXZ=              2.4791 YYYX=              0.0000 YYYZ=              0.0000 ZZZX=              0.0000
 ZZZY=             -0.0000 XXYY=            -13.7100 XXZZ=            -83.1285 YYZZ=            -83.1285
 XXYZ=             -0.0000 YYXZ=             -2.4791 ZZXY=              0.0000
 N-N= 1.607215885360D+02 E-N=-4.766910429635D+03  KE= 1.856715511189D+03
 Symmetry A    KE= 1.377949009451D+03
 Symmetry B    KE= 4.787665017380D+02
 No NMR shielding tensors so no spin-rotation constants.
 Leave Link  601 at Sun Jan 26 12:17:26 2025, MaxMem=  1610612736 cpu:         0.2
 (Enter /opt/g09/l701.exe)
 Compute integral first derivatives.
 ... and contract with generalized density number  2.
 Leave Link  701 at Sun Jan 26 12:17:26 2025, MaxMem=  1610612736 cpu:         0.3
 (Enter /opt/g09/l702.exe)
 L702 exits ... SP integral derivatives will be done elsewhere.
 Leave Link  702 at Sun Jan 26 12:17:26 2025, MaxMem=  1610612736 cpu:         0.1
 (Enter /opt/g09/l703.exe)
 Compute integral first derivatives, UseDBF=F ICtDFT=           0.
 Integral derivatives from FoFJK, PRISM(SPDF).
 Calling FoFJK, ICntrl=  10002127 FMM=F ISym2X=1 I1Cent= 0 IOpClX= 0 NMat=1 NMatS=1 NMatT=0.
 FoFJK:  IHMeth= 1 ICntrl=10002127 DoSepK=F KAlg= 0 I1Cent=   0 FoldK=F
 IRaf=         0 NMat=   1 IRICut=       1 DoRegI=T DoRafI=F ISym2E= 1.
 FoFCou: FMM=F IPFlag=           0 FMFlag=      100000 FMFlg1=         800
         NFxFlg=           0 DoJE=F BraDBF=F KetDBF=F FulRan=T
         wScrn=  0.000000 ICntrl=10002127 IOpCl=  0 I1Cent=           0 NGrid=           0
         NMat0=    1 NMatS0=      1 NMatT0=    0 NMatD0=    1 NMtDS0=    0 NMtDT0=    0
 Petite list used in FoFCou.
 Leave Link  703 at Sun Jan 26 12:17:27 2025, MaxMem=  1610612736 cpu:         1.8
 (Enter /opt/g09/l716.exe)
 Dipole        =-1.33226763D-15-1.79615437D-14-8.88178420D-16
 ***** Axes restored to original set *****
 -------------------------------------------------------------------
 Center     Atomic                   Forces (Hartrees/Bohr)
 Number     Number              X              Y              Z
 -------------------------------------------------------------------
      1       30           0.000000000    0.000000000   -0.000000000
      2        6           0.046481309    0.000000001    0.000000000
      3        1          -0.007302259    0.005250788    0.009875426
      4        1          -0.007302259    0.005926975   -0.009485029
      5        1          -0.007302259   -0.011177764   -0.000390397
      6        6          -0.046481309   -0.000000001   -0.000000000
      7        1           0.007302259   -0.005908469    0.009496568
      8        1           0.007302259   -0.005270034   -0.009865168
      9        1           0.007302259    0.011178504    0.000368600
 -------------------------------------------------------------------
 Cartesian Forces:  Max     0.046481309 RMS     0.014131041
 Leave Link  716 at Sun Jan 26 12:17:27 2025, MaxMem=  1610612736 cpu:         0.1
 (Enter /opt/g09/l103.exe)

 GradGradGradGradGradGradGradGradGradGradGradGradGradGradGradGradGradGrad
 Berny optimization.
 FormGI is forming the generalized inverse of G from B-inverse, IUseBI=4.
 Internal  Forces:  Max     0.024574532 RMS     0.008689531
 Search for a local minimum.
 Step number   1 out of a maximum of   41
 All quantities printed in internal units (Hartrees-Bohrs-Radians)
 RMS Force = .86895D-02 SwitMx=.10000D-02 MixMth= 1
 Mixed Optimization -- RFO/linear search
 Second derivative matrix not updated -- first step.
 ITU=  0
     Eigenvalues ---    0.00230   0.01708   0.02115   0.05715   0.05715
     Eigenvalues ---    0.05946   0.06970   0.13451   0.13451   0.16000
     Eigenvalues ---    0.16000   0.16000   0.16000   0.16000   0.16000
     Eigenvalues ---    0.37230   0.37230   0.37230   0.37230   0.37230
     Eigenvalues ---    0.37230
 RFO step:  Lambda=-1.16105706D-02 EMin= 2.30000000D-03
 Linear search not attempted -- first point.
 Iteration  1 RMS(Cart)=  0.06889562 RMS(Int)=  0.00020172
 Iteration  2 RMS(Cart)=  0.00018017 RMS(Int)=  0.00011022
 Iteration  3 RMS(Cart)=  0.00000005 RMS(Int)=  0.00011022
 ITry= 1 IFail=0 DXMaxC= 1.68D-01 DCOld= 1.00D+10 DXMaxT= 3.00D-01 DXLimC= 3.00D+00 Rises=F
 ClnCor:  largest displacement from symmetrization is 6.92D-09 for atom     1.
 Variable       Old X    -DE/DX   Delta X   Delta X   Delta X     New X
                                 (Linear)    (Quad)   (Total)
    R1        3.81725  -0.02457   0.00000  -0.16818  -0.16818   3.64907
    R2        3.81725  -0.02457   0.00000  -0.16818  -0.16818   3.64907
    R3        2.02201   0.01298   0.00000   0.03381   0.03381   2.05581
    R4        2.02201   0.01298   0.00000   0.03381   0.03381   2.05581
    R5        2.02201   0.01298   0.00000   0.03381   0.03381   2.05581
    R6        2.02201   0.01298   0.00000   0.03381   0.03381   2.05581
    R7        2.02201   0.01298   0.00000   0.03381   0.03381   2.05581
    R8        2.02201   0.01298   0.00000   0.03381   0.03381   2.05581
    A1        1.91063   0.00319   0.00000   0.01860   0.01842   1.92905
    A2        1.91063   0.00319   0.00000   0.01860   0.01842   1.92905
    A3        1.91063   0.00319   0.00000   0.01860   0.01842   1.92905
    A4        1.91063  -0.00319   0.00000  -0.01860  -0.01877   1.89186
    A5        1.91063  -0.00319   0.00000  -0.01860  -0.01877   1.89186
    A6        1.91063  -0.00319   0.00000  -0.01860  -0.01877   1.89186
    A7        1.91063   0.00319   0.00000   0.01860   0.01842   1.92905
    A8        1.91063   0.00319   0.00000   0.01860   0.01842   1.92905
    A9        1.91063   0.00319   0.00000   0.01860   0.01842   1.92905
   A10        1.91063  -0.00319   0.00000  -0.01860  -0.01877   1.89186
   A11        1.91063  -0.00319   0.00000  -0.01860  -0.01877   1.89186
   A12        1.91063  -0.00319   0.00000  -0.01860  -0.01877   1.89186
   A13        3.14159   0.00000   0.00000   0.00000  -0.00000   3.14159
   A14        3.14159   0.00000   0.00000   0.00000   0.00000   3.14159
    D1        1.04526  -0.00000   0.00000  -0.00000  -0.00000   1.04526
    D2        3.13965  -0.00000   0.00000  -0.00000  -0.00000   3.13965
    D3       -1.04914  -0.00000   0.00000  -0.00000  -0.00000  -1.04914
    D4        3.13965  -0.00000   0.00000  -0.00000  -0.00000   3.13965
    D5       -1.04914  -0.00000   0.00000  -0.00000  -0.00000  -1.04914
    D6        1.04526  -0.00000   0.00000  -0.00000  -0.00000   1.04526
    D7       -1.04914  -0.00000   0.00000  -0.00000  -0.00000  -1.04914
    D8        1.04526  -0.00000   0.00000  -0.00000  -0.00000   1.04526
    D9        3.13965  -0.00000   0.00000  -0.00000  -0.00000   3.13965
         Item               Value     Threshold  Converged?
 Maximum Force            0.024575     0.000450     NO 
 RMS     Force            0.008690     0.000300     NO 
 Maximum Displacement     0.168177     0.001800     NO 
 RMS     Displacement     0.068873     0.001200     NO 
 Predicted change in Energy=-6.197536D-03
 Lowest energy point so far.  Saving SCF results.
 GradGradGradGradGradGradGradGradGradGradGradGradGradGradGradGradGradGrad

 Leave Link  103 at Sun Jan 26 12:17:27 2025, MaxMem=  1610612736 cpu:         0.0
 (Enter /opt/g09/l202.exe)
                          Input orientation:                          
 ---------------------------------------------------------------------
 Center     Atomic      Atomic             Coordinates (Angstroms)
 Number     Number       Type             X           Y           Z
 ---------------------------------------------------------------------
      1         30           0       -0.000000   -0.000000   -0.000000
      2          6           0       -1.931004   -0.000000   -0.000000
      3          1           0       -2.312459    0.478306    0.899567
      4          1           0       -2.312459    0.539894   -0.864009
      5          1           0       -2.312459   -1.018201   -0.035558
      6          6           0        1.931004    0.000000    0.000000
      7          1           0        2.312459   -0.538215    0.865056
      8          1           0        2.312459   -0.480052   -0.898636
      9          1           0        2.312459    1.018268    0.033580
 ---------------------------------------------------------------------
                    Distance matrix (angstroms):
                    1          2          3          4          5
     1  Zn   0.000000
     2  C    1.931004   0.000000
     3  H    2.526948   1.087890   0.000000
     4  H    2.526948   1.087890   1.764650   0.000000
     5  H    2.526948   1.087890   1.764650   1.764650   0.000000
     6  C    1.931004   3.862009   4.364055   4.364055   4.364055
     7  H    2.526948   4.364055   4.735439   5.053895   4.736176
     8  H    2.526948   4.364055   5.053895   4.736176   4.735439
     9  H    2.526948   4.364055   4.736176   4.735439   5.053895
                    6          7          8          9
     6  C    0.000000
     7  H    1.087890   0.000000
     8  H    1.087890   1.764650   0.000000
     9  H    1.087890   1.764650   1.764650   0.000000
 Stoichiometry    C2H6Zn
 Framework group  D3[O(Zn),C3(C.C),X(H6)]
 Deg. of freedom     4
 Full point group                 D3      NOp   6
 RotChk:  IX=0 Diff= 6.25D-16
 Largest Abelian subgroup         C2      NOp   2
 Largest concise Abelian subgroup C2      NOp   2
                         Standard orientation:                         
 ---------------------------------------------------------------------
 Center     Atomic      Atomic             Coordinates (Angstroms)
 Number     Number       Type             X           Y           Z
 ---------------------------------------------------------------------
      1         30           0        0.000000    0.000000    0.000000
      2          6           0        0.000000    0.000000    1.931004
      3          1           0       -0.508554    0.882819    2.312459
      4          1           0       -0.510267   -0.881830    2.312459
      5          1           0        1.018821   -0.000989    2.312459
      6          6           0        0.000000    0.000000   -1.931004
      7          1           0        0.508554    0.882819   -2.312459
      8          1           0        0.510267   -0.881830   -2.312459
      9          1           0       -1.018821   -0.000989   -2.312459
 ---------------------------------------------------------------------
 Rotational constants (GHZ):     80.5164733      4.0441678      4.0441678
 Leave Link  202 at Sun Jan 26 12:17:27 2025, MaxMem=  1610612736 cpu:         0.0
 (Enter /opt/g09/l301.exe)
 Standard basis: 6-31G(d,p) (6D, 7F)
 Ernie: Thresh=  0.10000D-02 Tol=  0.10000D-05 Strict=F.
 There are    51 symmetry adapted cartesian basis functions of A   symmetry.
 There are    48 symmetry adapted cartesian basis functions of B   symmetry.
 There are    50 symmetry adapted basis functions of A   symmetry.
 There are    46 symmetry adapted basis functions of B   symmetry.
    96 basis functions,   202 primitive gaussians,    99 cartesian basis functions
    24 alpha electrons       24 beta electrons
       nuclear repulsion energy       165.9429228893 Hartrees.
 IExCor=    0 DFT=F Ex=HF Corr=None ExCW=0 ScaHFX=  1.000000
 ScaDFX=  1.000000  1.000000  1.000000  1.000000 ScalE2=  1.000000  1.000000
 IRadAn=      0 IRanWt=     -1 IRanGd=            0 ICorTp=0 IEmpDi=  4
 NAtoms=    9 NActive=    9 NUniq=    3 SFac= 4.00D+00 NAtFMM=   60 NAOKFM=F Big=F
 Integral buffers will be    131072 words long.
 Raffenetti 1 integral format.
 Two-electron integral symmetry is turned on.
 Leave Link  301 at Sun Jan 26 12:17:27 2025, MaxMem=  1610612736 cpu:         0.1
 (Enter /opt/g09/l302.exe)
 NPDir=0 NMtPBC=     1 NCelOv=     1 NCel=       1 NClECP=     1 NCelD=      1
         NCelK=      1 NCelE2=     1 NClLst=     1 CellRange=     0.0.
 One-electron integrals computed using PRISM.
 One-electron integral symmetry used in STVInt
 NBasis=    96 RedAO= T EigKep=  1.53D-03  NBF=    50    46
 NBsUse=    96 1.00D-06 EigRej= -1.00D+00 NBFU=    50    46
 Leave Link  302 at Sun Jan 26 12:17:27 2025, MaxMem=  1610612736 cpu:         0.2
 (Enter /opt/g09/l303.exe)
 DipDrv:  MaxL=1.
 Leave Link  303 at Sun Jan 26 12:17:27 2025, MaxMem=  1610612736 cpu:         0.1
 (Enter /opt/g09/l401.exe)
 Initial guess from the checkpoint file:  "ZnMe2-mp2.chk"
 B after Tr=    -0.000000    0.000000   -0.000000
         Rot=    1.000000    0.000000   -0.000000   -0.000000 Ang=   0.00 deg.
 Guess basis will be translated and rotated to current coordinates.
 JPrj=2 DoOrth=T DoCkMO=T.
 Initial guess orbital symmetries:
       Occupied  (A1) (A1) (E) (E) (A2) (A2) (A1) (A1) (E) (E)
                 (A2) (A1) (A2) (E) (E) (E) (E) (A1) (E) (E) (E)
                 (E) (A1) (A2)
       Virtual   (A1) (A1) (E) (A1) (?A) (?A) (A1) (?B) (?B) (A1)
                 (?B) (A1) (?A) (A1) (A1) (?B) (?A) (?B) (?A) (?A)
                 (?B) (?B) (?A) (A1) (A1) (A1) (A1) (?B) (?A) (A1)
                 (?B) (A1) (?A) (A1) (?A) (?B) (?B) (A2) (E) (?A)
                 (A2) (?A) (?A) (A2) (A2) (?B) (?B) (A2) (?B) (A2)
                 (?A) (?A) (?B) (A2) (?B) (?A) (?A) (?B) (?B) (?A)
                 (A2) (A2) (?A) (?B) (A2) (?A) (?B) (A2) (?B) (A2)
                 (?B) (A2)
 The electronic state of the initial guess is 1-A1.
 Generating alternative initial guess.
 ExpMin= 4.93D-02 ExpMax= 8.24D+04 ExpMxC= 1.24D+04 IAcc=2 IRadAn=         4 AccDes= 0.00D+00
 Harris functional with IExCor=  205 and IRadAn=       4 diagonalized for initial guess.
 HarFok:  IExCor=  205 AccDes= 0.00D+00 IRadAn=         4 IDoV= 1 UseB2=F ITyADJ=14
 ICtDFT=  3500011 ScaDFX=  1.000000  1.000000  1.000000  1.000000
 FoFCou: FMM=F IPFlag=           0 FMFlag=      100000 FMFlg1=           0
         NFxFlg=           0 DoJE=T BraDBF=F KetDBF=T FulRan=T
         wScrn=  0.000000 ICntrl=     500 IOpCl=  0 I1Cent=   200000004 NGrid=           0
         NMat0=    1 NMatS0=      1 NMatT0=    0 NMatD0=    1 NMtDS0=    0 NMtDT0=    0
 Petite list used in FoFCou.
 Harris En= -1856.46362017957    
 Leave Link  401 at Sun Jan 26 12:17:27 2025, MaxMem=  1610612736 cpu:         0.4
 (Enter /opt/g09/l502.exe)
 Closed shell SCF:
 Using DIIS extrapolation, IDIIS=  1040.
 Integral symmetry usage will be decided dynamically.
 Keep R1 ints in memory in symmetry-blocked form, NReq=16324047.
 IVT=       49559 IEndB=       49559 NGot=  1610612736 MDV=  1605130282
 LenX=  1605130282 LenY=  1605120040
 Requested convergence on RMS density matrix=1.00D-08 within 128 cycles.
 Requested convergence on MAX density matrix=1.00D-06.
 Requested convergence on             energy=1.00D-06.
 No special actions if energy rises.
 FoFCou: FMM=F IPFlag=           0 FMFlag=           0 FMFlg1=           0
         NFxFlg=           0 DoJE=F BraDBF=F KetDBF=F FulRan=T
         wScrn=  0.000000 ICntrl=     600 IOpCl=  0 I1Cent=           0 NGrid=           0
         NMat0=    1 NMatS0=   4656 NMatT0=    0 NMatD0=    1 NMtDS0=    0 NMtDT0=    0
 Petite list used in FoFCou.

 Cycle   1  Pass 1  IDiag  1:
 E= -1856.70643957528    
 DIIS: error= 3.99D-03 at cycle   1 NSaved=   1.
 NSaved= 1 IEnMin= 1 EnMin= -1856.70643957528     IErMin= 1 ErrMin= 3.99D-03
 ErrMax= 3.99D-03  0.00D+00 EMaxC= 1.00D-01 BMatC= 1.32D-03 BMatP= 1.32D-03
 IDIUse=3 WtCom= 9.60D-01 WtEn= 3.99D-02
 Coeff-Com:  0.100D+01
 Coeff-En:   0.100D+01
 Coeff:      0.100D+01
 Gap=     1.000 Goal=   None    Shift=    0.000
 GapD=    1.000 DampG=2.000 DampE=1.000 DampFc=2.0000 IDamp=-1.
 RMSDP=4.75D-04 MaxDP=7.93D-03              OVMax= 1.42D-02

 Cycle   2  Pass 1  IDiag  1:
 E= -1856.70827675134     Delta-E=       -0.001837176064 Rises=F Damp=F
 DIIS: error= 2.20D-03 at cycle   2 NSaved=   2.
 NSaved= 2 IEnMin= 2 EnMin= -1856.70827675134     IErMin= 2 ErrMin= 2.20D-03
 ErrMax= 2.20D-03  0.00D+00 EMaxC= 1.00D-01 BMatC= 1.84D-04 BMatP= 1.32D-03
 IDIUse=3 WtCom= 9.78D-01 WtEn= 2.20D-02
 Coeff-Com: -0.137D-02 0.100D+01
 Coeff-En:   0.000D+00 0.100D+01
 Coeff:     -0.134D-02 0.100D+01
 Gap=     0.443 Goal=   None    Shift=    0.000
 RMSDP=1.74D-04 MaxDP=2.65D-03 DE=-1.84D-03 OVMax= 5.02D-03

 Cycle   3  Pass 1  IDiag  1:
 E= -1856.70848503728     Delta-E=       -0.000208285939 Rises=F Damp=F
 DIIS: error= 1.39D-03 at cycle   3 NSaved=   3.
 NSaved= 3 IEnMin= 3 EnMin= -1856.70848503728     IErMin= 3 ErrMin= 1.39D-03
 ErrMax= 1.39D-03  0.00D+00 EMaxC= 1.00D-01 BMatC= 5.68D-05 BMatP= 1.84D-04
 IDIUse=3 WtCom= 9.86D-01 WtEn= 1.39D-02
 Coeff-Com: -0.975D-01 0.350D+00 0.748D+00
 Coeff-En:   0.000D+00 0.000D+00 0.100D+01
 Coeff:     -0.961D-01 0.345D+00 0.751D+00
 Gap=     0.444 Goal=   None    Shift=    0.000
 RMSDP=7.68D-05 MaxDP=1.66D-03 DE=-2.08D-04 OVMax= 2.51D-03

 Cycle   4  Pass 1  IDiag  1:
 E= -1856.70853483688     Delta-E=       -0.000049799591 Rises=F Damp=F
 DIIS: error= 3.33D-04 at cycle   4 NSaved=   4.
 NSaved= 4 IEnMin= 4 EnMin= -1856.70853483688     IErMin= 4 ErrMin= 3.33D-04
 ErrMax= 3.33D-04  0.00D+00 EMaxC= 1.00D-01 BMatC= 4.57D-06 BMatP= 5.68D-05
 IDIUse=3 WtCom= 9.97D-01 WtEn= 3.33D-03
 Coeff-Com:  0.139D-01-0.190D+00-0.297D-01 0.121D+01
 Coeff-En:   0.000D+00 0.000D+00 0.000D+00 0.100D+01
 Coeff:      0.138D-01-0.189D+00-0.296D-01 0.120D+01
 Gap=     0.444 Goal=   None    Shift=    0.000
 RMSDP=5.02D-05 MaxDP=8.44D-04 DE=-4.98D-05 OVMax= 1.71D-03

 Cycle   5  Pass 1  IDiag  1:
 E= -1856.70854354416     Delta-E=       -0.000008707280 Rises=F Damp=F
 DIIS: error= 5.72D-05 at cycle   5 NSaved=   5.
 NSaved= 5 IEnMin= 5 EnMin= -1856.70854354416     IErMin= 5 ErrMin= 5.72D-05
 ErrMax= 5.72D-05  0.00D+00 EMaxC= 1.00D-01 BMatC= 9.24D-08 BMatP= 4.57D-06
 IDIUse=1 WtCom= 1.00D+00 WtEn= 0.00D+00
 Coeff-Com:  0.323D-02 0.107D-01-0.439D-01-0.165D+00 0.120D+01
 Coeff:      0.323D-02 0.107D-01-0.439D-01-0.165D+00 0.120D+01
 Gap=     0.444 Goal=   None    Shift=    0.000
 RMSDP=1.05D-05 MaxDP=1.82D-04 DE=-8.71D-06 OVMax= 3.49D-04

 Cycle   6  Pass 1  IDiag  1:
 E= -1856.70854378450     Delta-E=       -0.000000240348 Rises=F Damp=F
 DIIS: error= 4.31D-06 at cycle   6 NSaved=   6.
 NSaved= 6 IEnMin= 6 EnMin= -1856.70854378450     IErMin= 6 ErrMin= 4.31D-06
 ErrMax= 4.31D-06  0.00D+00 EMaxC= 1.00D-01 BMatC= 1.25D-09 BMatP= 9.24D-08
 IDIUse=1 WtCom= 1.00D+00 WtEn= 0.00D+00
 Coeff-Com: -0.733D-03 0.482D-02 0.519D-02-0.208D-01-0.850D-01 0.110D+01
 Coeff:     -0.733D-03 0.482D-02 0.519D-02-0.208D-01-0.850D-01 0.110D+01
 Gap=     0.444 Goal=   None    Shift=    0.000
 RMSDP=1.08D-06 MaxDP=2.59D-05 DE=-2.40D-07 OVMax= 3.23D-05

 Cycle   7  Pass 1  IDiag  1:
 E= -1856.70854378728     Delta-E=       -0.000000002780 Rises=F Damp=F
 DIIS: error= 7.74D-07 at cycle   7 NSaved=   7.
 NSaved= 7 IEnMin= 7 EnMin= -1856.70854378728     IErMin= 7 ErrMin= 7.74D-07
 ErrMax= 7.74D-07  0.00D+00 EMaxC= 1.00D-01 BMatC= 4.32D-11 BMatP= 1.25D-09
 IDIUse=1 WtCom= 1.00D+00 WtEn= 0.00D+00
 Coeff-Com:  0.323D-04-0.911D-03 0.266D-03 0.621D-02-0.152D-01-0.164D+00
 Coeff-Com:  0.117D+01
 Coeff:      0.323D-04-0.911D-03 0.266D-03 0.621D-02-0.152D-01-0.164D+00
 Coeff:      0.117D+01
 Gap=     0.444 Goal=   None    Shift=    0.000
 RMSDP=2.14D-07 MaxDP=5.61D-06 DE=-2.78D-09 OVMax= 5.37D-06

 Cycle   8  Pass 1  IDiag  1:
 E= -1856.70854378741     Delta-E=       -0.000000000123 Rises=F Damp=F
 DIIS: error= 2.31D-07 at cycle   8 NSaved=   8.
 NSaved= 8 IEnMin= 8 EnMin= -1856.70854378741     IErMin= 8 ErrMin= 2.31D-07
 ErrMax= 2.31D-07  0.00D+00 EMaxC= 1.00D-01 BMatC= 3.73D-12 BMatP= 4.32D-11
 IDIUse=1 WtCom= 1.00D+00 WtEn= 0.00D+00
 Coeff-Com:  0.326D-04-0.355D-03-0.123D-03 0.201D-02 0.196D-03-0.678D-01
 Coeff-Com:  0.197D+00 0.869D+00
 Coeff:      0.326D-04-0.355D-03-0.123D-03 0.201D-02 0.196D-03-0.678D-01
 Coeff:      0.197D+00 0.869D+00
 Gap=     0.444 Goal=   None    Shift=    0.000
 RMSDP=3.05D-08 MaxDP=6.98D-07 DE=-1.23D-10 OVMax= 8.48D-07

 Cycle   9  Pass 1  IDiag  1:
 E= -1856.70854378741     Delta-E=       -0.000000000004 Rises=F Damp=F
 DIIS: error= 6.42D-08 at cycle   9 NSaved=   9.
 NSaved= 9 IEnMin= 9 EnMin= -1856.70854378741     IErMin= 9 ErrMin= 6.42D-08
 ErrMax= 6.42D-08  0.00D+00 EMaxC= 1.00D-01 BMatC= 2.42D-13 BMatP= 3.73D-12
 IDIUse=1 WtCom= 1.00D+00 WtEn= 0.00D+00
 Coeff-Com: -0.461D-05 0.997D-04 0.487D-05-0.675D-03 0.984D-03 0.208D-01
 Coeff-Com: -0.123D+00-0.693D-01 0.117D+01
 Coeff:     -0.461D-05 0.997D-04 0.487D-05-0.675D-03 0.984D-03 0.208D-01
 Coeff:     -0.123D+00-0.693D-01 0.117D+01
 Gap=     0.444 Goal=   None    Shift=    0.000
 RMSDP=1.56D-08 MaxDP=4.18D-07 DE=-3.87D-12 OVMax= 4.54D-07

 Cycle  10  Pass 1  IDiag  1:
 E= -1856.70854378741     Delta-E=       -0.000000000001 Rises=F Damp=F
 DIIS: error= 1.48D-08 at cycle  10 NSaved=  10.
 NSaved=10 IEnMin=10 EnMin= -1856.70854378741     IErMin=10 ErrMin= 1.48D-08
 ErrMax= 1.48D-08  0.00D+00 EMaxC= 1.00D-01 BMatC= 8.63D-15 BMatP= 2.42D-13
 IDIUse=1 WtCom= 1.00D+00 WtEn= 0.00D+00
 Coeff-Com:  0.525D-06-0.244D-04 0.806D-05 0.170D-03-0.418D-03-0.460D-02
 Coeff-Com:  0.349D-01-0.162D-01-0.355D+00 0.134D+01
 Coeff:      0.525D-06-0.244D-04 0.806D-05 0.170D-03-0.418D-03-0.460D-02
 Coeff:      0.349D-01-0.162D-01-0.355D+00 0.134D+01
 Gap=     0.444 Goal=   None    Shift=    0.000
 RMSDP=3.25D-09 MaxDP=6.35D-08 DE=-9.09D-13 OVMax= 9.52D-08

 SCF Done:  E(RHF) =  -1856.70854379     A.U. after   10 cycles
            NFock= 10  Conv=0.32D-08     -V/T= 2.0000
 KE= 1.856708020150D+03 PE=-4.777331062321D+03 EE= 8.979715754937D+02
 Leave Link  502 at Sun Jan 26 12:17:28 2025, MaxMem=  1610612736 cpu:         1.7
 (Enter /opt/g09/l801.exe)
 ExpMin= 4.93D-02 ExpMax= 8.24D+04 ExpMxC= 1.24D+04 IAcc=3 IRadAn=         5 AccDes= 0.00D+00
 HarFok:  IExCor=  205 AccDes= 0.00D+00 IRadAn=         5 IDoV=-2 UseB2=F ITyADJ=14
 ICtDFT= 12500011 ScaDFX=  1.000000  1.000000  1.000000  1.000000
 Largest valence mixing into a core orbital is  1.94D-04
 Largest core mixing into a valence orbital is  9.63D-05
 Range of M.O.s used for correlation:    12    96
 NBasis=    96 NAE=    24 NBE=    24 NFC=    11 NFV=     0
 NROrb=     85 NOA=    13 NOB=    13 NVA=    72 NVB=    72

 **** Warning!!: The largest alpha MO coefficient is  0.23859193D+02

 Leave Link  801 at Sun Jan 26 12:17:28 2025, MaxMem=  1610612736 cpu:         0.3
 (Enter /opt/g09/l906.exe)
 Frozen-core derivative calculation, NFC=  11 NFV=   0.
 FulOut=F Deriv=T AODrv=T NAtomX=     9
   MMem=        5445  MDisk=          13 MDiskD=          13
  W3Min=      228096 MinDsk=      370958 NBas6D=          99
 NBas2D=        5121    NTT=        4950    LW2=     3500000
    MDV=  1610481950 MDiskM=       81236 NBas2p=        2987
 Fully direct method using O(ONN) memory.
 IMap=   1   2   3   4   5   6   7   8   9  10  11  12  13  14  15  16  17  18  19  20
 IMap=  21  22  23  24
 JobTyp=1 Pass  1:  I=  12 to  24 NPSUse=  2 ParTrn=T ParDer=T DoDerP=T.
 Spin components of T(2) and E(2):
     alpha-alpha T2 =       0.2071304428D-01 E2=     -0.8086252024D-01
     alpha-beta  T2 =       0.1183763437D+00 E2=     -0.4201395015D+00
     beta-beta   T2 =       0.2071304428D-01 E2=     -0.8086252024D-01
 The integrals were generated   1 times.
 ANorm=    0.1076941239D+01
 E2 =    -0.5818645419D+00 EUMP2 =    -0.18572904083294D+04
 Leave Link  906 at Sun Jan 26 12:17:32 2025, MaxMem=  1610612736 cpu:         7.3
 (Enter /opt/g09/l1002.exe)
 Minotr:  Closed shell wavefunction.
          Computing MP2/KS-MP2 derivatives.
          Using Z-Vector for PSCF gradient.
          Skipping F1 and S1 gradient terms here.
          IDoAtm=111111111
          Frozen-core window.
          Direct CPHF calculation.
          Differentiating once with respect to electric field.
                with respect to dipole field.
          Differentiating once with respect to nuclear coordinates.
          Using symmetry in CPHF.
          Requested convergence is 1.0D-10 RMS, and 1.0D-09 maximum.
          NewPWx=F KeepS1=T KeepF1=T KeepIn=T MapXYZ=F SortEE=F KeepMc=T.
          MDV=    1610612557 using IRadAn=       0.
 Keep R1 ints in memory in symmetry-blocked form, NReq=16275938.
 FoFCou: FMM=F IPFlag=           0 FMFlag=           0 FMFlg1=           0
         NFxFlg=           0 DoJE=F BraDBF=F KetDBF=F FulRan=T
         wScrn=  0.000000 ICntrl=     600 IOpCl=  0 I1Cent=           0 NGrid=           0
         NMat0=    1 NMatS0=   4656 NMatT0=    0 NMatD0=    1 NMtDS0=    0 NMtDT0=    0
 Petite list used in FoFCou.
          Solving linear equations separately, MaxMat=       0.
          There are     1 degrees of freedom in the 1st order CPHF.  IDoFFX=0 NUNeed=     1.
 LinEq1:  Iter=  0 NonCon=     1 RMS=5.13D-03 Max=9.85D-02 NDo=     1
 AX will form     1 AO Fock derivatives at one time.
 LinEq1:  Iter=  1 NonCon=     1 RMS=2.20D-03 Max=3.45D-02 NDo=     1
 LinEq1:  Iter=  2 NonCon=     1 RMS=5.51D-04 Max=9.58D-03 NDo=     1
 LinEq1:  Iter=  3 NonCon=     1 RMS=1.79D-04 Max=2.18D-03 NDo=     1
 LinEq1:  Iter=  4 NonCon=     1 RMS=3.16D-05 Max=3.91D-04 NDo=     1
 LinEq1:  Iter=  5 NonCon=     1 RMS=4.40D-06 Max=6.65D-05 NDo=     1
 LinEq1:  Iter=  6 NonCon=     1 RMS=6.70D-07 Max=1.09D-05 NDo=     1
 LinEq1:  Iter=  7 NonCon=     1 RMS=7.77D-08 Max=1.10D-06 NDo=     1
 LinEq1:  Iter=  8 NonCon=     1 RMS=9.50D-09 Max=2.07D-07 NDo=     1
 LinEq1:  Iter=  9 NonCon=     1 RMS=8.52D-10 Max=8.74D-09 NDo=     1
 LinEq1:  Iter= 10 NonCon=     1 RMS=8.13D-11 Max=1.16D-09 NDo=     1
 LinEq1:  Iter= 11 NonCon=     0 RMS=7.80D-12 Max=1.14D-10 NDo=     1
 Linear equations converged to 1.000D-10 1.000D-09 after    11 iterations.
 End of Minotr F.D. properties file   721 does not exist.
 End of Minotr F.D. properties file   722 does not exist.
 End of Minotr F.D. properties file   788 does not exist.
 Leave Link 1002 at Sun Jan 26 12:17:33 2025, MaxMem=  1610612736 cpu:         1.8
 (Enter /opt/g09/l701.exe)
 Compute integral first derivatives.
 ... and contract with generalized density number  2.
 Leave Link  701 at Sun Jan 26 12:17:33 2025, MaxMem=  1610612736 cpu:         0.2
 (Enter /opt/g09/l702.exe)
 L702 exits ... SP integral derivatives will be done elsewhere.
 Leave Link  702 at Sun Jan 26 12:17:33 2025, MaxMem=  1610612736 cpu:         0.1
 (Enter /opt/g09/l703.exe)
 Compute integral first derivatives, UseDBF=F ICtDFT=           0.
 Integral derivatives from FoFJK, PRISM(SPDF).
 Calling FoFJK, ICntrl=  10002127 FMM=F ISym2X=1 I1Cent= 0 IOpClX= 0 NMat=1 NMatS=1 NMatT=0.
 FoFJK:  IHMeth= 1 ICntrl=10002127 DoSepK=F KAlg= 0 I1Cent=   0 FoldK=F
 IRaf=         0 NMat=   1 IRICut=       1 DoRegI=T DoRafI=F ISym2E= 1.
 FoFCou: FMM=F IPFlag=           0 FMFlag=      100000 FMFlg1=         800
         NFxFlg=           0 DoJE=F BraDBF=F KetDBF=F FulRan=T
         wScrn=  0.000000 ICntrl=10002127 IOpCl=  0 I1Cent=           0 NGrid=           0
         NMat0=    1 NMatS0=      1 NMatT0=    0 NMatD0=    1 NMtDS0=    0 NMtDT0=    0
 Petite list used in FoFCou.
 Leave Link  703 at Sun Jan 26 12:17:34 2025, MaxMem=  1610612736 cpu:         1.8
 (Enter /opt/g09/l716.exe)
 Dipole        =-6.66133815D-16 6.91005413D-15 0.00000000D+00
 ***** Axes restored to original set *****
 -------------------------------------------------------------------
 Center     Atomic                   Forces (Hartrees/Bohr)
 Number     Number              X              Y              Z
 -------------------------------------------------------------------
      1       30          -0.000000000   -0.000000000    0.000000000
      2        6           0.014339001    0.000000000    0.000000000
      3        1          -0.003221224   -0.000151584   -0.000284904
      4        1          -0.003221224   -0.000170942    0.000273728
      5        1          -0.003221224    0.000322526    0.000011176
      6        6          -0.014339001   -0.000000000   -0.000000000
      7        1           0.003221224    0.000170558   -0.000273967
      8        1           0.003221224    0.000151983    0.000284691
      9        1           0.003221224   -0.000322541   -0.000010724
 -------------------------------------------------------------------
 Cartesian Forces:  Max     0.014339001 RMS     0.004190361
 Leave Link  716 at Sun Jan 26 12:17:34 2025, MaxMem=  1610612736 cpu:         0.1
 (Enter /opt/g09/l103.exe)

 GradGradGradGradGradGradGradGradGradGradGradGradGradGradGradGradGradGrad
 Berny optimization.
 Using GEDIIS/GDIIS optimizer.
 FormGI is forming the generalized inverse of G from B-inverse, IUseBI=4.
 Internal  Forces:  Max     0.004675330 RMS     0.002323634
 Search for a local minimum.
 Step number   2 out of a maximum of   41
 All quantities printed in internal units (Hartrees-Bohrs-Radians)
 RMS Force = .23236D-02 SwitMx=.10000D-02 MixMth= 1
 Mixed Optimization -- RFO/linear search
 Update second derivatives using D2CorX and points    1    2
 DE= -7.25D-03 DEPred=-6.20D-03 R= 1.17D+00
 TightC=F SS=  1.41D+00  RLast= 2.60D-01 DXNew= 5.0454D-01 7.7985D-01
 Trust test= 1.17D+00 RLast= 2.60D-01 DXMaxT set to 5.05D-01
 ITU=  1  0
 Use linear search instead of GDIIS.
     Eigenvalues ---    0.00230   0.01661   0.02094   0.05520   0.05520
     Eigenvalues ---    0.05793   0.06894   0.10496   0.13451   0.16000
     Eigenvalues ---    0.16000   0.16000   0.16000   0.16000   0.16797
     Eigenvalues ---    0.37230   0.37230   0.37230   0.37230   0.37230
     Eigenvalues ---    0.38480
 RFO step:  Lambda=-7.70792621D-04 EMin= 2.30000000D-03
 Quartic linear search produced a step of  0.22536.
 Iteration  1 RMS(Cart)=  0.01254871 RMS(Int)=  0.00032086
 Iteration  2 RMS(Cart)=  0.00035552 RMS(Int)=  0.00019325
 Iteration  3 RMS(Cart)=  0.00000002 RMS(Int)=  0.00019325
 ITry= 1 IFail=0 DXMaxC= 4.37D-02 DCOld= 1.00D+10 DXMaxT= 5.05D-01 DXLimC= 3.00D+00 Rises=F
 ClnCor:  largest displacement from symmetrization is 6.84D-09 for atom     1.
 Variable       Old X    -DE/DX   Delta X   Delta X   Delta X     New X
                                 (Linear)    (Quad)   (Total)
    R1        3.64907  -0.00468  -0.03790  -0.00580  -0.04370   3.60537
    R2        3.64907  -0.00468  -0.03790  -0.00580  -0.04370   3.60537
    R3        2.05581   0.00083   0.00762  -0.00334   0.00428   2.06009
    R4        2.05581   0.00083   0.00762  -0.00334   0.00428   2.06009
    R5        2.05581   0.00083   0.00762  -0.00334   0.00428   2.06009
    R6        2.05581   0.00083   0.00762  -0.00334   0.00428   2.06009
    R7        2.05581   0.00083   0.00762  -0.00334   0.00428   2.06009
    R8        2.05581   0.00083   0.00762  -0.00334   0.00428   2.06009
    A1        1.92905   0.00310   0.00415   0.01980   0.02363   1.95268
    A2        1.92905   0.00310   0.00415   0.01980   0.02363   1.95268
    A3        1.92905   0.00310   0.00415   0.01980   0.02363   1.95268
    A4        1.89186  -0.00321  -0.00423  -0.02056  -0.02509   1.86678
    A5        1.89186  -0.00321  -0.00423  -0.02056  -0.02509   1.86678
    A6        1.89186  -0.00321  -0.00423  -0.02056  -0.02509   1.86678
    A7        1.92905   0.00310   0.00415   0.01980   0.02363   1.95268
    A8        1.92905   0.00310   0.00415   0.01980   0.02363   1.95268
    A9        1.92905   0.00310   0.00415   0.01980   0.02363   1.95268
   A10        1.89186  -0.00321  -0.00423  -0.02056  -0.02509   1.86678
   A11        1.89186  -0.00321  -0.00423  -0.02056  -0.02509   1.86678
   A12        1.89186  -0.00321  -0.00423  -0.02056  -0.02509   1.86678
   A13        3.14159   0.00000   0.00000   0.00000  -0.00000   3.14159
   A14        3.14159   0.00000  -0.00000   0.00000   0.00000   3.14159
    D1        1.04526  -0.00000  -0.00000  -0.00001  -0.00002   1.04524
    D2        3.13965  -0.00000  -0.00000  -0.00001  -0.00002   3.13964
    D3       -1.04914  -0.00000  -0.00000  -0.00001  -0.00002  -1.04915
    D4        3.13965  -0.00000  -0.00000  -0.00001  -0.00002   3.13964
    D5       -1.04914  -0.00000  -0.00000  -0.00001  -0.00002  -1.04915
    D6        1.04526  -0.00000  -0.00000  -0.00001  -0.00002   1.04524
    D7       -1.04914  -0.00000  -0.00000  -0.00001  -0.00002  -1.04915
    D8        1.04526  -0.00000  -0.00000  -0.00001  -0.00002   1.04524
    D9        3.13965  -0.00000  -0.00000  -0.00001  -0.00002   3.13964
         Item               Value     Threshold  Converged?
 Maximum Force            0.004675     0.000450     NO 
 RMS     Force            0.002324     0.000300     NO 
 Maximum Displacement     0.043697     0.001800     NO 
 RMS     Displacement     0.012686     0.001200     NO 
 Predicted change in Energy=-7.378235D-04
 Lowest energy point so far.  Saving SCF results.
 GradGradGradGradGradGradGradGradGradGradGradGradGradGradGradGradGradGrad

 Leave Link  103 at Sun Jan 26 12:17:34 2025, MaxMem=  1610612736 cpu:         0.0
 (Enter /opt/g09/l202.exe)
                          Input orientation:                          
 ---------------------------------------------------------------------
 Center     Atomic      Atomic             Coordinates (Angstroms)
 Number     Number       Type             X           Y           Z
 ---------------------------------------------------------------------
      1         30           0        0.000000   -0.000000   -0.000000
      2          6           0       -1.907881   -0.000000   -0.000000
      3          1           0       -2.314147    0.474921    0.893217
      4          1           0       -2.314147    0.536088   -0.857902
      5          1           0       -2.314147   -1.011009   -0.035314
      6          6           0        1.907881    0.000000    0.000000
      7          1           0        2.314147   -0.534407    0.858950
      8          1           0        2.314147   -0.476669   -0.892285
      9          1           0        2.314147    1.011076    0.033336
 ---------------------------------------------------------------------
                    Distance matrix (angstroms):
                    1          2          3          4          5
     1  Zn   0.000000
     2  C    1.907881   0.000000
     3  H    2.525601   1.090155   0.000000
     4  H    2.525601   1.090155   1.752187   0.000000
     5  H    2.525601   1.090155   1.752187   1.752187   0.000000
     6  C    1.907881   3.815762   4.341532   4.341532   4.341532
     7  H    2.525601   4.341532   4.737195   5.051202   4.737928
     8  H    2.525601   4.341532   5.051202   4.737928   4.737195
     9  H    2.525601   4.341532   4.737928   4.737195   5.051202
                    6          7          8          9
     6  C    0.000000
     7  H    1.090155   0.000000
     8  H    1.090155   1.752187   0.000000
     9  H    1.090155   1.752187   1.752187   0.000000
 Stoichiometry    C2H6Zn
 Framework group  D3[O(Zn),C3(C.C),X(H6)]
 Deg. of freedom     4
 Full point group                 D3      NOp   6
 RotChk:  IX=0 Diff= 5.08D-16
 Largest Abelian subgroup         C2      NOp   2
 Largest concise Abelian subgroup C2      NOp   2
                         Standard orientation:                         
 ---------------------------------------------------------------------
 Center     Atomic      Atomic             Coordinates (Angstroms)
 Number     Number       Type             X           Y           Z
 ---------------------------------------------------------------------
      1         30           0        0.000000    0.000000    0.000000
      2          6           0        0.000000   -0.000000    1.907881
      3          1           0       -0.504955    0.876588    2.314147
      4          1           0       -0.506670   -0.875598    2.314147
      5          1           0        1.011625   -0.000990    2.314147
      6          6           0        0.000000   -0.000000   -1.907881
      7          1           0        0.504955    0.876588   -2.314147
      8          1           0        0.506670   -0.875598   -2.314147
      9          1           0       -1.011625   -0.000990   -2.314147
 ---------------------------------------------------------------------
 Rotational constants (GHZ):     81.6659899      4.1142085      4.1142085
 Leave Link  202 at Sun Jan 26 12:17:34 2025, MaxMem=  1610612736 cpu:         0.0
 (Enter /opt/g09/l301.exe)
 Standard basis: 6-31G(d,p) (6D, 7F)
 Ernie: Thresh=  0.10000D-02 Tol=  0.10000D-05 Strict=F.
 There are    51 symmetry adapted cartesian basis functions of A   symmetry.
 There are    48 symmetry adapted cartesian basis functions of B   symmetry.
 There are    50 symmetry adapted basis functions of A   symmetry.
 There are    46 symmetry adapted basis functions of B   symmetry.
    96 basis functions,   202 primitive gaussians,    99 cartesian basis functions
    24 alpha electrons       24 beta electrons
       nuclear repulsion energy       167.2174898187 Hartrees.
 IExCor=    0 DFT=F Ex=HF Corr=None ExCW=0 ScaHFX=  1.000000
 ScaDFX=  1.000000  1.000000  1.000000  1.000000 ScalE2=  1.000000  1.000000
 IRadAn=      0 IRanWt=     -1 IRanGd=            0 ICorTp=0 IEmpDi=  4
 NAtoms=    9 NActive=    9 NUniq=    3 SFac= 4.00D+00 NAtFMM=   60 NAOKFM=F Big=F
 Integral buffers will be    131072 words long.
 Raffenetti 1 integral format.
 Two-electron integral symmetry is turned on.
 Leave Link  301 at Sun Jan 26 12:17:34 2025, MaxMem=  1610612736 cpu:         0.1
 (Enter /opt/g09/l302.exe)
 NPDir=0 NMtPBC=     1 NCelOv=     1 NCel=       1 NClECP=     1 NCelD=      1
         NCelK=      1 NCelE2=     1 NClLst=     1 CellRange=     0.0.
 One-electron integrals computed using PRISM.
 One-electron integral symmetry used in STVInt
 NBasis=    96 RedAO= T EigKep=  1.53D-03  NBF=    50    46
 NBsUse=    96 1.00D-06 EigRej= -1.00D+00 NBFU=    50    46
 Leave Link  302 at Sun Jan 26 12:17:34 2025, MaxMem=  1610612736 cpu:         0.2
 (Enter /opt/g09/l303.exe)
 DipDrv:  MaxL=1.
 Leave Link  303 at Sun Jan 26 12:17:34 2025, MaxMem=  1610612736 cpu:         0.1
 (Enter /opt/g09/l401.exe)
 Initial guess from the checkpoint file:  "ZnMe2-mp2.chk"
 B after Tr=     0.000000   -0.000000   -0.000000
         Rot=    1.000000    0.000000   -0.000000   -0.000000 Ang=   0.00 deg.
 Guess basis will be translated and rotated to current coordinates.
 JPrj=2 DoOrth=T DoCkMO=T.
 Initial guess orbital symmetries:
       Occupied  (A1) (A1) (E) (E) (A2) (A2) (A1) (A1) (E) (E)
                 (A2) (A1) (A2) (E) (E) (E) (E) (A1) (E) (E) (E)
                 (E) (A1) (A2)
       Virtual   (A1) (A1) (E) (A1) (?A) (?A) (A1) (?B) (?B) (A1)
                 (?B) (A1) (?A) (A1) (A1) (?B) (?A) (?B) (?A) (?A)
                 (?B) (?B) (?A) (A1) (A1) (A1) (A1) (?B) (?A) (A1)
                 (?B) (A1) (?A) (A1) (?A) (?B) (?B) (A2) (E) (?A)
                 (A2) (?A) (?A) (A2) (A2) (?B) (?B) (A2) (?B) (A2)
                 (?A) (?A) (?B) (A2) (?B) (?A) (?A) (?B) (?B) (?A)
                 (A2) (A2) (?A) (?B) (A2) (?A) (?B) (A2) (?B) (A2)
                 (?B) (A2)
 The electronic state of the initial guess is 1-A1.
 Generating alternative initial guess.
 ExpMin= 4.93D-02 ExpMax= 8.24D+04 ExpMxC= 1.24D+04 IAcc=2 IRadAn=         4 AccDes= 0.00D+00
 Harris functional with IExCor=  205 and IRadAn=       4 diagonalized for initial guess.
 HarFok:  IExCor=  205 AccDes= 0.00D+00 IRadAn=         4 IDoV= 1 UseB2=F ITyADJ=14
 ICtDFT=  3500011 ScaDFX=  1.000000  1.000000  1.000000  1.000000
 FoFCou: FMM=F IPFlag=           0 FMFlag=      100000 FMFlg1=           0
         NFxFlg=           0 DoJE=T BraDBF=F KetDBF=T FulRan=T
         wScrn=  0.000000 ICntrl=     500 IOpCl=  0 I1Cent=   200000004 NGrid=           0
         NMat0=    1 NMatS0=      1 NMatT0=    0 NMatD0=    1 NMtDS0=    0 NMtDT0=    0
 Petite list used in FoFCou.
 Harris En= -1856.46874651231    
 Leave Link  401 at Sun Jan 26 12:17:35 2025, MaxMem=  1610612736 cpu:         0.4
 (Enter /opt/g09/l502.exe)
 Closed shell SCF:
 Using DIIS extrapolation, IDIIS=  1040.
 Integral symmetry usage will be decided dynamically.
 Keep R1 ints in memory in symmetry-blocked form, NReq=16324047.
 IVT=       49559 IEndB=       49559 NGot=  1610612736 MDV=  1605130282
 LenX=  1605130282 LenY=  1605120040
 Requested convergence on RMS density matrix=1.00D-08 within 128 cycles.
 Requested convergence on MAX density matrix=1.00D-06.
 Requested convergence on             energy=1.00D-06.
 No special actions if energy rises.
 FoFCou: FMM=F IPFlag=           0 FMFlag=           0 FMFlg1=           0
         NFxFlg=           0 DoJE=F BraDBF=F KetDBF=F FulRan=T
         wScrn=  0.000000 ICntrl=     600 IOpCl=  0 I1Cent=           0 NGrid=           0
         NMat0=    1 NMatS0=   4656 NMatT0=    0 NMatD0=    1 NMtDS0=    0 NMtDT0=    0
 Petite list used in FoFCou.

 Cycle   1  Pass 1  IDiag  1:
 E= -1856.70744370521    
 DIIS: error= 1.56D-03 at cycle   1 NSaved=   1.
 NSaved= 1 IEnMin= 1 EnMin= -1856.70744370521     IErMin= 1 ErrMin= 1.56D-03
 ErrMax= 1.56D-03  0.00D+00 EMaxC= 1.00D-01 BMatC= 2.09D-04 BMatP= 2.09D-04
 IDIUse=3 WtCom= 9.84D-01 WtEn= 1.56D-02
 Coeff-Com:  0.100D+01
 Coeff-En:   0.100D+01
 Coeff:      0.100D+01
 Gap=     1.002 Goal=   None    Shift=    0.000
 GapD=    1.002 DampG=2.000 DampE=1.000 DampFc=2.0000 IDamp=-1.
 RMSDP=1.64D-04 MaxDP=2.27D-03              OVMax= 4.77D-03

 Cycle   2  Pass 1  IDiag  1:
 E= -1856.70771905693     Delta-E=       -0.000275351714 Rises=F Damp=F
 DIIS: error= 5.52D-04 at cycle   2 NSaved=   2.
 NSaved= 2 IEnMin= 2 EnMin= -1856.70771905693     IErMin= 2 ErrMin= 5.52D-04
 ErrMax= 5.52D-04  0.00D+00 EMaxC= 1.00D-01 BMatC= 1.87D-05 BMatP= 2.09D-04
 IDIUse=3 WtCom= 9.94D-01 WtEn= 5.52D-03
 Coeff-Com: -0.125D+00 0.113D+01
 Coeff-En:   0.000D+00 0.100D+01
 Coeff:     -0.124D+00 0.112D+01
 Gap=     0.451 Goal=   None    Shift=    0.000
 RMSDP=6.06D-05 MaxDP=8.29D-04 DE=-2.75D-04 OVMax= 1.88D-03

 Cycle   3  Pass 1  IDiag  1:
 E= -1856.70774527005     Delta-E=       -0.000026213117 Rises=F Damp=F
 DIIS: error= 4.42D-04 at cycle   3 NSaved=   3.
 NSaved= 3 IEnMin= 3 EnMin= -1856.70774527005     IErMin= 3 ErrMin= 4.42D-04
 ErrMax= 4.42D-04  0.00D+00 EMaxC= 1.00D-01 BMatC= 6.45D-06 BMatP= 1.87D-05
 IDIUse=3 WtCom= 9.96D-01 WtEn= 4.42D-03
 Coeff-Com: -0.106D+00 0.428D+00 0.677D+00
 Coeff-En:   0.000D+00 0.000D+00 0.100D+01
 Coeff:     -0.105D+00 0.426D+00 0.679D+00
 Gap=     0.452 Goal=   None    Shift=    0.000
 RMSDP=2.01D-05 MaxDP=3.83D-04 DE=-2.62D-05 OVMax= 6.32D-04

 Cycle   4  Pass 1  IDiag  1:
 E= -1856.70774964620     Delta-E=       -0.000004376157 Rises=F Damp=F
 DIIS: error= 9.11D-05 at cycle   4 NSaved=   4.
 NSaved= 4 IEnMin= 4 EnMin= -1856.70774964620     IErMin= 4 ErrMin= 9.11D-05
 ErrMax= 9.11D-05  0.00D+00 EMaxC= 1.00D-01 BMatC= 3.86D-07 BMatP= 6.45D-06
 IDIUse=1 WtCom= 1.00D+00 WtEn= 0.00D+00
 Coeff-Com:  0.161D-01-0.154D+00 0.405D-02 0.113D+01
 Coeff:      0.161D-01-0.154D+00 0.405D-02 0.113D+01
 Gap=     0.452 Goal=   None    Shift=    0.000
 RMSDP=1.31D-05 MaxDP=2.37D-04 DE=-4.38D-06 OVMax= 5.37D-04

 Cycle   5  Pass 1  IDiag  1:
 E= -1856.70775037417     Delta-E=       -0.000000727967 Rises=F Damp=F
 DIIS: error= 1.66D-05 at cycle   5 NSaved=   5.
 NSaved= 5 IEnMin= 5 EnMin= -1856.70775037417     IErMin= 5 ErrMin= 1.66D-05
 ErrMax= 1.66D-05  0.00D+00 EMaxC= 1.00D-01 BMatC= 2.70D-08 BMatP= 3.86D-07
 IDIUse=1 WtCom= 1.00D+00 WtEn= 0.00D+00
 Coeff-Com:  0.127D-01-0.675D-01-0.529D-01 0.205D+00 0.903D+00
 Coeff:      0.127D-01-0.675D-01-0.529D-01 0.205D+00 0.903D+00
 Gap=     0.452 Goal=   None    Shift=    0.000
 RMSDP=3.37D-06 MaxDP=5.64D-05 DE=-7.28D-07 OVMax= 1.04D-04

 Cycle   6  Pass 1  IDiag  1:
 E= -1856.70775042428     Delta-E=       -0.000000050113 Rises=F Damp=F
 DIIS: error= 3.61D-06 at cycle   6 NSaved=   6.
 NSaved= 6 IEnMin= 6 EnMin= -1856.70775042428     IErMin= 6 ErrMin= 3.61D-06
 ErrMax= 3.61D-06  0.00D+00 EMaxC= 1.00D-01 BMatC= 9.72D-10 BMatP= 2.70D-08
 IDIUse=1 WtCom= 1.00D+00 WtEn= 0.00D+00
 Coeff-Com: -0.190D-02 0.154D-01 0.253D-02-0.975D-01-0.479D-01 0.113D+01
 Coeff:     -0.190D-02 0.154D-01 0.253D-02-0.975D-01-0.479D-01 0.113D+01
 Gap=     0.452 Goal=   None    Shift=    0.000
 RMSDP=1.02D-06 MaxDP=1.98D-05 DE=-5.01D-08 OVMax= 3.59D-05

 Cycle   7  Pass 1  IDiag  1:
 E= -1856.70775042672     Delta-E=       -0.000000002435 Rises=F Damp=F
 DIIS: error= 3.84D-07 at cycle   7 NSaved=   7.
 NSaved= 7 IEnMin= 7 EnMin= -1856.70775042672     IErMin= 7 ErrMin= 3.84D-07
 ErrMax= 3.84D-07  0.00D+00 EMaxC= 1.00D-01 BMatC= 1.15D-11 BMatP= 9.72D-10
 IDIUse=1 WtCom= 1.00D+00 WtEn= 0.00D+00
 Coeff-Com:  0.170D-05-0.744D-03 0.512D-03 0.845D-02-0.111D-01-0.149D+00
 Coeff-Com:  0.115D+01
 Coeff:      0.170D-05-0.744D-03 0.512D-03 0.845D-02-0.111D-01-0.149D+00
 Coeff:      0.115D+01
 Gap=     0.452 Goal=   None    Shift=    0.000
 RMSDP=1.25D-07 MaxDP=2.22D-06 DE=-2.44D-09 OVMax= 3.19D-06

 Cycle   8  Pass 1  IDiag  1:
 E= -1856.70775042675     Delta-E=       -0.000000000032 Rises=F Damp=F
 DIIS: error= 7.72D-08 at cycle   8 NSaved=   8.
 NSaved= 8 IEnMin= 8 EnMin= -1856.70775042675     IErMin= 8 ErrMin= 7.72D-08
 ErrMax= 7.72D-08  0.00D+00 EMaxC= 1.00D-01 BMatC= 3.26D-13 BMatP= 1.15D-11
 IDIUse=1 WtCom= 1.00D+00 WtEn= 0.00D+00
 Coeff-Com:  0.296D-04-0.163D-03-0.254D-04 0.617D-03 0.254D-02-0.426D-02
 Coeff-Com: -0.131D+00 0.113D+01
 Coeff:      0.296D-04-0.163D-03-0.254D-04 0.617D-03 0.254D-02-0.426D-02
[...]
 IRaf=         0 NMat=   1 IRICut=       1 DoRegI=T DoRafI=F ISym2E= 1.
 FoFCou: FMM=F IPFlag=           0 FMFlag=      100000 FMFlg1=         800
         NFxFlg=           0 DoJE=F BraDBF=F KetDBF=F FulRan=T
         wScrn=  0.000000 ICntrl=10002127 IOpCl=  0 I1Cent=           0 NGrid=           0
         NMat0=    1 NMatS0=      1 NMatT0=    0 NMatD0=    1 NMtDS0=    0 NMtDT0=    0
 Petite list used in FoFCou.
 Leave Link  703 at Sun Jan 26 12:17:48 2025, MaxMem=  1610612736 cpu:         2.0
 (Enter /opt/g09/l716.exe)
 Dipole        =-1.11022302D-15-1.01281830D-14-1.77635684D-15
 ***** Axes restored to original set *****
 -------------------------------------------------------------------
 Center     Atomic                   Forces (Hartrees/Bohr)
 Number     Number              X              Y              Z
 -------------------------------------------------------------------
      1       30           0.000000000    0.000000000   -0.000000000
      2        6          -0.000047510   -0.000000000   -0.000000000
      3        1           0.000003887   -0.000074147   -0.000139272
      4        1           0.000003887   -0.000083540    0.000133849
      5        1           0.000003887    0.000157687    0.000005423
      6        6           0.000047510    0.000000000    0.000000000
      7        1          -0.000003887    0.000083422   -0.000133923
      8        1          -0.000003887    0.000074270    0.000139207
      9        1          -0.000003887   -0.000157691   -0.000005284
 -------------------------------------------------------------------
 Cartesian Forces:  Max     0.000157691 RMS     0.000075516
 Leave Link  716 at Sun Jan 26 12:17:48 2025, MaxMem=  1610612736 cpu:         0.1
 (Enter /opt/g09/l103.exe)

 GradGradGradGradGradGradGradGradGradGradGradGradGradGradGradGradGradGrad
 Berny optimization.
 Using GEDIIS/GDIIS optimizer.
 FormGI is forming the generalized inverse of G from B-inverse, IUseBI=4.
 Internal  Forces:  Max     0.000147471 RMS     0.000073966
 Search for a local minimum.
 Step number   4 out of a maximum of   41
 All quantities printed in internal units (Hartrees-Bohrs-Radians)
 RMS Force = .73966D-04 SwitMx=.10000D-02 MixMth= 2
 Mixed Optimization -- En-DIIS/RFO-DIIS
 Swapping is turned off.
 Update second derivatives using D2CorX and points    1    2    3    4
 DE= -4.45D-05 DEPred=-4.29D-05 R= 1.04D+00
 TightC=F SS=  1.41D+00  RLast= 2.60D-02 DXNew= 8.4853D-01 7.8117D-02
 Trust test= 1.04D+00 RLast= 2.60D-02 DXMaxT set to 5.05D-01
 ITU=  1  1  1  0
     Eigenvalues ---    0.00230   0.01582   0.02069   0.05196   0.05196
     Eigenvalues ---    0.05514   0.06775   0.09746   0.13451   0.16000
     Eigenvalues ---    0.16000   0.16000   0.16000   0.16000   0.16546
     Eigenvalues ---    0.37230   0.37230   0.37230   0.37230   0.37230
     Eigenvalues ---    0.38932
 En-DIIS/RFO-DIIS IScMMF=        0 using points:     4    3
 RFO step:  Lambda=-3.07514994D-07.
 NNeg= 0 NP= 2 Switch=  2.50D-03 Rises=F DC=  4.45D-05 SmlDif=  1.00D-05
 RMS Error=  0.1397532537D-03 NUsed= 2 EDIIS=F
 DidBck=F Rises=F RFO-DIIS coefs:    1.05161   -0.05161
 Iteration  1 RMS(Cart)=  0.00043109 RMS(Int)=  0.00000077
 Iteration  2 RMS(Cart)=  0.00000013 RMS(Int)=  0.00000076
 ITry= 1 IFail=0 DXMaxC= 7.30D-04 DCOld= 1.00D+10 DXMaxT= 5.05D-01 DXLimC= 3.00D+00 Rises=F
 ClnCor:  largest displacement from symmetrization is 6.54D-09 for atom     1.
 Variable       Old X    -DE/DX   Delta X   Delta X   Delta X     New X
                                 (Linear)    (Quad)   (Total)
    R1        3.60857   0.00004   0.00016  -0.00012   0.00005   3.60862
    R2        3.60857   0.00004   0.00016  -0.00012   0.00005   3.60862
    R3        2.06115  -0.00015   0.00005  -0.00040  -0.00035   2.06081
    R4        2.06115  -0.00015   0.00005  -0.00040  -0.00035   2.06081
    R5        2.06115  -0.00015   0.00005  -0.00040  -0.00035   2.06081
    R6        2.06115  -0.00015   0.00005  -0.00040  -0.00035   2.06081
    R7        2.06115  -0.00015   0.00005  -0.00040  -0.00035   2.06081
    R8        2.06115  -0.00015   0.00005  -0.00040  -0.00035   2.06081
    A1        1.95972   0.00005   0.00036   0.00006   0.00043   1.96014
    A2        1.95972   0.00005   0.00036   0.00006   0.00043   1.96014
    A3        1.95972   0.00005   0.00036   0.00006   0.00043   1.96014
    A4        1.85910  -0.00006  -0.00040  -0.00007  -0.00047   1.85863
    A5        1.85910  -0.00006  -0.00040  -0.00007  -0.00047   1.85863
    A6        1.85910  -0.00006  -0.00040  -0.00007  -0.00047   1.85863
    A7        1.95972   0.00005   0.00036   0.00006   0.00043   1.96014
    A8        1.95972   0.00005   0.00036   0.00006   0.00043   1.96014
    A9        1.95972   0.00005   0.00036   0.00006   0.00043   1.96014
   A10        1.85910  -0.00006  -0.00040  -0.00007  -0.00047   1.85863
   A11        1.85910  -0.00006  -0.00040  -0.00007  -0.00047   1.85863
   A12        1.85910  -0.00006  -0.00040  -0.00007  -0.00047   1.85863
   A13        3.14159   0.00000   0.00000   0.00000   0.00000   3.14159
   A14        3.14159   0.00000  -0.00000   0.00000   0.00000   3.14159
    D1        1.04522  -0.00000  -0.00000  -0.00002  -0.00003   1.04519
    D2        3.13961  -0.00000  -0.00000  -0.00002  -0.00003   3.13959
    D3       -1.04918  -0.00000  -0.00000  -0.00002  -0.00003  -1.04920
    D4        3.13961  -0.00000  -0.00000  -0.00002  -0.00003   3.13959
    D5       -1.04918  -0.00000  -0.00000  -0.00002  -0.00003  -1.04920
    D6        1.04522  -0.00000  -0.00000  -0.00002  -0.00003   1.04519
    D7       -1.04918  -0.00000  -0.00000  -0.00002  -0.00003  -1.04920
    D8        1.04522  -0.00000  -0.00000  -0.00002  -0.00003   1.04519
    D9        3.13961  -0.00000  -0.00000  -0.00002  -0.00003   3.13959
         Item               Value     Threshold  Converged?
 Maximum Force            0.000147     0.000450     YES
 RMS     Force            0.000074     0.000300     YES
 Maximum Displacement     0.000730     0.001800     YES
 RMS     Displacement     0.000431     0.001200     YES
 Predicted change in Energy=-3.027307D-07
 Optimization completed.
    -- Stationary point found.
                           ----------------------------
                           !   Optimized Parameters   !
                           ! (Angstroms and Degrees)  !
 --------------------------                            --------------------------
 ! Name  Definition              Value          Derivative Info.                !
 --------------------------------------------------------------------------------
 ! R1    R(1,2)                  1.9096         -DE/DX =    0.0                 !
 ! R2    R(1,6)                  1.9096         -DE/DX =    0.0                 !
 ! R3    R(2,3)                  1.0907         -DE/DX =   -0.0001              !
 ! R4    R(2,4)                  1.0907         -DE/DX =   -0.0001              !
 ! R5    R(2,5)                  1.0907         -DE/DX =   -0.0001              !
 ! R6    R(6,7)                  1.0907         -DE/DX =   -0.0001              !
 ! R7    R(6,8)                  1.0907         -DE/DX =   -0.0001              !
 ! R8    R(6,9)                  1.0907         -DE/DX =   -0.0001              !
 ! A1    A(1,2,3)              112.2834         -DE/DX =    0.0001              !
 ! A2    A(1,2,4)              112.2834         -DE/DX =    0.0001              !
 ! A3    A(1,2,5)              112.2834         -DE/DX =    0.0001              !
 ! A4    A(3,2,4)              106.5185         -DE/DX =   -0.0001              !
 ! A5    A(3,2,5)              106.5185         -DE/DX =   -0.0001              !
 ! A6    A(4,2,5)              106.5185         -DE/DX =   -0.0001              !
 ! A7    A(1,6,7)              112.2834         -DE/DX =    0.0001              !
 ! A8    A(1,6,8)              112.2834         -DE/DX =    0.0001              !
 ! A9    A(1,6,9)              112.2834         -DE/DX =    0.0001              !
 ! A10   A(7,6,8)              106.5185         -DE/DX =   -0.0001              !
 ! A11   A(7,6,9)              106.5185         -DE/DX =   -0.0001              !
 ! A12   A(8,6,9)              106.5185         -DE/DX =   -0.0001              !
 ! A13   L(2,1,6,3,-1)         180.0            -DE/DX =    0.0                 !
 ! A14   L(2,1,6,3,-2)         180.0            -DE/DX =    0.0                 !
 ! D1    D(3,2,6,7)             59.8865         -DE/DX =    0.0                 !
 ! D2    D(3,2,6,8)            179.8865         -DE/DX =    0.0                 !
 ! D3    D(3,2,6,9)            -60.1135         -DE/DX =    0.0                 !
 ! D4    D(4,2,6,7)            179.8865         -DE/DX =    0.0                 !
 ! D5    D(4,2,6,8)            -60.1135         -DE/DX =    0.0                 !
 ! D6    D(4,2,6,9)             59.8865         -DE/DX =    0.0                 !
 ! D7    D(5,2,6,7)            -60.1135         -DE/DX =    0.0                 !
 ! D8    D(5,2,6,8)             59.8865         -DE/DX =    0.0                 !
 ! D9    D(5,2,6,9)            179.8865         -DE/DX =    0.0                 !
 --------------------------------------------------------------------------------
 Lowest energy point so far.  Saving SCF results.
 GradGradGradGradGradGradGradGradGradGradGradGradGradGradGradGradGradGrad

 Largest change from initial coordinates is atom    2       0.054 Angstoms.
 Leave Link  103 at Sun Jan 26 12:17:48 2025, MaxMem=  1610612736 cpu:         0.0
 (Enter /opt/g09/l202.exe)
                          Input orientation:                          
 ---------------------------------------------------------------------
 Center     Atomic      Atomic             Coordinates (Angstroms)
 Number     Number       Type             X           Y           Z
 ---------------------------------------------------------------------
      1         30           0        0.000000   -0.000000   -0.000000
      2          6           0       -1.909572   -0.000000   -0.000000
      3          1           0       -2.323159    0.473800    0.891133
      4          1           0       -2.323159    0.534844   -0.855889
      5          1           0       -2.323159   -1.008644   -0.035244
      6          6           0        1.909572    0.000000    0.000000
      7          1           0        2.323159   -0.533147    0.856947
      8          1           0        2.323159   -0.475564   -0.890193
      9          1           0        2.323159    1.008712    0.033246
 ---------------------------------------------------------------------
                    Distance matrix (angstroms):
                    1          2          3          4          5
     1  Zn   0.000000
     2  C    1.909572   0.000000
     3  H    2.532918   1.090715   0.000000
     4  H    2.532918   1.090715   1.748089   0.000000
     5  H    2.532918   1.090715   1.748089   1.748089   0.000000
     6  C    1.909572   3.819145   4.351393   4.351393   4.351393
     7  H    2.532918   4.351393   4.754301   5.065835   4.755036
     8  H    2.532918   4.351393   5.065835   4.755036   4.754301
     9  H    2.532918   4.351393   4.755036   4.754301   5.065835
                    6          7          8          9
     6  C    0.000000
     7  H    1.090715   0.000000
     8  H    1.090715   1.748089   0.000000
     9  H    1.090715   1.748089   1.748089   0.000000
 Stoichiometry    C2H6Zn
 Framework group  D3[O(Zn),C3(C.C),X(H6)]
 Deg. of freedom     4
 Full point group                 D3      NOp   6
 RotChk:  IX=0 Diff= 7.63D-16
 Largest Abelian subgroup         C2      NOp   2
 Largest concise Abelian subgroup C2      NOp   2
                         Standard orientation:                         
 ---------------------------------------------------------------------
 Center     Atomic      Atomic             Coordinates (Angstroms)
 Number     Number       Type             X           Y           Z
 ---------------------------------------------------------------------
      1         30           0        0.000000    0.000000    0.000000
      2          6           0        0.000000    0.000000    1.909572
      3          1           0       -0.503764    0.874544    2.323159
      4          1           0       -0.505495   -0.873544    2.323159
      5          1           0        1.009259   -0.001000    2.323159
      6          6           0        0.000000    0.000000   -1.909572
      7          1           0        0.503764    0.874544   -2.323159
      8          1           0        0.505495   -0.873544   -2.323159
      9          1           0       -1.009259   -0.001000   -2.323159
 ---------------------------------------------------------------------
 Rotational constants (GHZ):     82.0493611      4.1010798      4.1010798
 Leave Link  202 at Sun Jan 26 12:17:48 2025, MaxMem=  1610612736 cpu:         0.0
 (Enter /opt/g09/l601.exe)
 Copying SCF densities to generalized density rwf, IOpCl= 0 IROHF=0.

 **********************************************************************

            Population analysis using the SCF density.

 **********************************************************************

 Orbital symmetries:
       Occupied  (A1) (A1) (E) (E) (A2) (A2) (A1) (A1) (E) (E)
                 (A2) (A1) (A2) (E) (E) (E) (E) (A1) (E) (E) (E)
                 (E) (A1) (A2)
       Virtual   (E) (E) (A1) (A2) (E) (E) (E) (E) (A1) (A1) (E)
                 (E) (A2) (A2) (E) (E) (A2) (A1) (E) (E) (E) (E)
                 (E) (E) (A1) (A2) (A1) (A1) (A2) (E) (E) (E) (E)
                 (A1) (A2) (A1) (A2) (E) (E) (E) (E) (E) (E) (E)
                 (E) (E) (E) (A1) (A2) (E) (E) (E) (E) (A2) (E)
                 (E) (A1) (E) (E) (A1) (E) (E) (A2) (A1) (A2) (E)
                 (E) (E) (E) (A1) (A2) (A1)
 The electronic state is 1-A1.
 Alpha  occ. eigenvalues -- -353.28816 -44.37035 -38.93775 -38.93775 -38.93508
 Alpha  occ. eigenvalues --  -11.17641 -11.17640  -5.62807  -3.83263  -3.83263
 Alpha  occ. eigenvalues --   -3.82976  -0.91071  -0.89436  -0.75929  -0.75929
 Alpha  occ. eigenvalues --   -0.75633  -0.75633  -0.73387  -0.52068  -0.52068
 Alpha  occ. eigenvalues --   -0.51077  -0.51077  -0.42438  -0.36046
 Alpha virt. eigenvalues --    0.09293   0.09293   0.11623   0.16836   0.28152
 Alpha virt. eigenvalues --    0.28152   0.33893   0.33893   0.34515   0.37303
 Alpha virt. eigenvalues --    0.42522   0.42522   0.46886   0.73448   0.75287
 Alpha virt. eigenvalues --    0.75287   0.88093   0.89072   0.89820   0.89820
 Alpha virt. eigenvalues --    1.16097   1.16097   1.16124   1.16124   1.24534
 Alpha virt. eigenvalues --    1.33183   1.40433   1.52735   1.67869   1.68067
 Alpha virt. eigenvalues --    1.68067   1.72002   1.72002   2.07507   2.22749
 Alpha virt. eigenvalues --    2.38347   2.38348   2.40855   2.40855   2.44557
 Alpha virt. eigenvalues --    2.44557   2.45235   2.45235   2.49180   2.49180
 Alpha virt. eigenvalues --    2.49633   2.49633   2.65299   2.65365   2.66821
 Alpha virt. eigenvalues --    2.66821   2.82053   2.82053   2.95785   2.96066
 Alpha virt. eigenvalues --    2.96066   2.99875   3.17717   3.17717   3.21197
 Alpha virt. eigenvalues --    3.23627   3.23627   3.30120   3.61716   3.66826
 Alpha virt. eigenvalues --    3.83357   3.83357   3.85225   3.85225   4.85585
 Alpha virt. eigenvalues --    4.94260  48.56592
          Condensed to atoms (all electrons):
               1          2          3          4          5          6
     1  Zn  28.630137   0.368901  -0.025336  -0.025336  -0.025336   0.368901
     2  C    0.368901   5.218123   0.383273   0.383273   0.383273  -0.005414
     3  H   -0.025336   0.383273   0.585168  -0.028199  -0.028199   0.000086
     4  H   -0.025336   0.383273  -0.028199   0.585168  -0.028199   0.000086
     5  H   -0.025336   0.383273  -0.028199  -0.028199   0.585168   0.000086
     6  C    0.368901  -0.005414   0.000086   0.000086   0.000086   5.218123
     7  H   -0.025336   0.000086  -0.000008   0.000007  -0.000008   0.383273
     8  H   -0.025336   0.000086   0.000007  -0.000008  -0.000008   0.383273
     9  H   -0.025336   0.000086  -0.000008  -0.000008   0.000007   0.383273
               7          8          9
     1  Zn  -0.025336  -0.025336  -0.025336
     2  C    0.000086   0.000086   0.000086
     3  H   -0.000008   0.000007  -0.000008
     4  H    0.000007  -0.000008  -0.000008
     5  H   -0.000008  -0.000008   0.000007
     6  C    0.383273   0.383273   0.383273
     7  H    0.585168  -0.028199  -0.028199
     8  H   -0.028199   0.585168  -0.028199
     9  H   -0.028199  -0.028199   0.585168
 Mulliken charges:
               1
     1  Zn   0.784079
     2  C   -0.731688
     3  H    0.113216
     4  H    0.113216
     5  H    0.113216
     6  C   -0.731688
     7  H    0.113216
     8  H    0.113216
     9  H    0.113216
 Sum of Mulliken charges =  -0.00000
 Mulliken charges with hydrogens summed into heavy atoms:
               1
     1  Zn   0.784079
     2  C   -0.392040
     6  C   -0.392040
 Electronic spatial extent (au):  <R**2>=            361.0287
 Charge=             -0.0000 electrons
 Dipole moment (field-independent basis, Debye):
    X=             -0.0000    Y=              0.0000    Z=             -0.0000  Tot=              0.0000
 Quadrupole moment (field-independent basis, Debye-Ang):
   XX=            -27.3241   YY=            -27.3241   ZZ=            -35.8764
   XY=              0.0000   XZ=              0.0000   YZ=             -0.0000
 Traceless Quadrupole moment (field-independent basis, Debye-Ang):
   XX=              2.8508   YY=              2.8508   ZZ=             -5.7015
   XY=              0.0000   XZ=              0.0000   YZ=             -0.0000
 Octapole moment (field-independent basis, Debye-Ang**2):
  XXX=             -0.0000  YYY=              0.0026  ZZZ=             -0.0000  XYY=             -0.0000
  XXY=             -0.0026  XXZ=              0.0000  XZZ=             -0.0000  YZZ=             -0.0000
  YYZ=             -0.0000  XYZ=              0.0000
 Hexadecapole moment (field-independent basis, Debye-Ang**3):
 XXXX=            -41.5369 YYYY=            -41.5369 ZZZZ=           -477.3248 XXXY=              0.0000
 XXXZ=              2.3529 YYYX=              0.0000 YYYZ=             -0.0000 ZZZX=             -0.0000
 ZZZY=             -0.0000 XXYY=            -13.8456 XXZZ=            -77.9287 YYZZ=            -77.9287
 XXYZ=             -0.0000 YYXZ=             -2.3529 ZZXY=              0.0000
 N-N= 1.669976984659D+02 E-N=-4.779409849310D+03  KE= 1.856724349910D+03
 Symmetry A    KE= 1.377824045554D+03
 Symmetry B    KE= 4.789003043551D+02
 No NMR shielding tensors so no spin-rotation constants.
 Leave Link  601 at Sun Jan 26 12:17:48 2025, MaxMem=  1610612736 cpu:         0.2
 (Enter /opt/g09/l9999.exe)
 1\1\ WCSS.PL-BEM-SPIRIT2\FOpt\RMP2-FC\6-31G(d,p)\C2H6Zn1\SERGEY\26-Jan
 -2025\0\\#p opt mp2/6-31g(d,p)\\ZnPc geom mp2/6-31dp\\0,1\Zn,0.,-0.000
 0000002,-0.0000000002\C,-1.9095723675,-0.0000000299,-0.0000000016\H,-2
 .3231587586,0.4737999394,0.891133042\H,-2.3231587582,0.53484383,-0.855
 8893392\H,-2.3231587348,-1.0086438785,-0.0352437086\C,1.9095723675,0.0
 000000295,0.0000000012\H,2.3231587582,-0.5331474218,0.856947087\H,2.32
 31587586,-0.4755641809,-0.8901927836\H,2.3231587348,1.0087117106,0.033
 2457011\\Version=ES64L-G09RevE.01\State=1-A1\HF=-1856.7079487\MP2=-185
 7.291221\RMSD=5.413e-09\RMSF=7.552e-05\Dipole=0.,0.,0.\PG=D03 [O(Zn1),
 C3(C1.C1),X(H6)]\\@


 I think that all right-thinking people in this
 country are sick and tired of being told that
 ordinary, decent people are fed up in this country
 with being sick and tired.  I'm certainly not!
 But I'm sick and tired of being told that I am!
                               -- Monty Python
 Job cpu time:       0 days  0 hours  0 minutes 56.8 seconds.
 File lengths (MBytes):  RWF=      7 Int=      0 D2E=      0 Chk=      2 Scr=      1
 Normal termination of Gaussian 09 at Sun Jan 26 12:17:48 2025.
